/*--------------------------------*- C++ -*----------------------------------*\
| =========                 |                                                 |
| \\      /  F ield         | OpenFOAM: The Open Source CFD Toolbox           |
|  \\    /   O peration     | Version:  5.0                                   |
|   \\  /    A nd           | Web:      www.OpenFOAM.org                      |
|    \\/     M anipulation  |                                                 |
\*---------------------------------------------------------------------------*/
FoamFile
{
    version     2.0;
    format      ascii;
    class       volScalarField;
    location    "6.5";
    object      epsilon;
}
// * * * * * * * * * * * * * * * * * * * * * * * * * * * * * * * * * * * * * //

dimensions      [0 2 -3 0 0 0 0];

internalField   nonuniform List<scalar> 
400
(
1.386e-05
4.32032e-05
0.000214179
0.000515258
0.000736898
0.000897198
0.0010265
0.00114911
0.00125586
0.00136484
0.00146637
0.00157357
0.00168097
0.00175677
0.00179186
0.00179645
0.00167294
0.001329
0.00081759
0.000589759
6.70593e-05
0.000197787
0.000574914
0.000882602
0.000963779
0.000999011
0.00101158
0.0010539
0.00109961
0.00118075
0.00128032
0.00141077
0.00156572
0.00175047
0.00195644
0.00216798
0.00227104
0.00228448
0.00182769
0.00122027
0.000241455
0.000650706
0.000913304
0.000959301
0.000959793
0.000959149
0.000954891
0.000994087
0.00105279
0.0011295
0.00121534
0.00131125
0.00142286
0.00156234
0.00173594
0.00194936
0.00214449
0.00222713
0.00207087
0.00158363
0.000562852
0.000938368
0.000988427
0.000936862
0.000905677
0.000878329
0.000875167
0.000905568
0.000937875
0.00097408
0.001015
0.00107387
0.00116461
0.00129759
0.00149661
0.00177147
0.00207631
0.00221391
0.00218989
0.00181786
0.000842127
0.00107892
0.000971818
0.000871296
0.000801866
0.000767149
0.000750829
0.000743383
0.00073447
0.000731109
0.000739011
0.000775691
0.000853785
0.000993311
0.00122597
0.00158107
0.00205521
0.00234128
0.00237881
0.00199452
0.00101391
0.00108158
0.000919201
0.000776296
0.000702175
0.000653448
0.00061259
0.000570705
0.000528672
0.000501669
0.000491599
0.000504033
0.000568959
0.000701433
0.000945637
0.00135828
0.00198014
0.00251471
0.00264516
0.0021354
0.001053
0.00104765
0.000833789
0.000691039
0.000613619
0.000551426
0.000490487
0.000427678
0.000370285
0.000331177
0.000314205
0.000312741
0.000358492
0.000468275
0.000693066
0.00111996
0.00184973
0.00268343
0.00295173
0.00224503
0.00103797
0.000971853
0.000753706
0.000620163
0.000541516
0.00047074
0.000398674
0.000327976
0.000267994
0.000226694
0.000207175
0.000202579
0.000229388
0.000309649
0.000494179
0.000892419
0.00166243
0.00278615
0.00332164
0.00233267
0.000997605
0.00087822
0.000683093
0.000563217
0.000486645
0.00041299
0.000337602
0.000267017
0.000210319
0.000172085
0.000153699
0.000148977
0.00016525
0.000218626
0.000358306
0.000708863
0.00149867
0.00282172
0.00368829
0.0023933
0.000915185
0.000799374
0.000626347
0.000520375
0.000447741
0.000375278
0.000301572
0.000234748
0.000182959
0.000148617
0.000131362
0.000127127
0.000138044
0.000175143
0.000276729
0.000568022
0.00133218
0.0028262
0.00407691
0.00243562
0.000828421
0.000728325
0.000579526
0.000486397
0.000419533
0.000352017
0.000283189
0.000222115
0.00017573
0.000144354
0.000126727
0.000121974
0.000130083
0.000158366
0.000237905
0.000475879
0.00118467
0.00278536
0.00442593
0.00245512
0.000753186
0.000685463
0.000547773
0.00046437
0.000402701
0.000340087
0.000278269
0.000223323
0.000179507
0.000149578
0.000132386
0.000127021
0.000132284
0.000155056
0.000224309
0.00043062
0.00106684
0.00273852
0.0047321
0.0024619
0.000671035
0.000641886
0.000527725
0.000447341
0.000390535
0.000336128
0.000280656
0.000229846
0.000190119
0.000162484
0.000145676
0.000140373
0.000144963
0.000164412
0.000223598
0.000413795
0.00100391
0.00269984
0.00488898
0.00245793
0.00059615
0.000622811
0.000530711
0.000449424
0.000392586
0.000339884
0.000288411
0.000243476
0.000207628
0.000182009
0.000165315
0.000160542
0.000165384
0.000185108
0.000242521
0.000417459
0.00097926
0.00268322
0.00494662
0.00244301
0.000508489
0.000592307
0.000537357
0.000460515
0.000403549
0.000352295
0.000304263
0.000262978
0.00022995
0.000206466
0.000190029
0.000187054
0.000193075
0.000215778
0.000278457
0.000459757
0.000994997
0.0026893
0.00486773
0.00241046
0.00042284
0.000575394
0.000554637
0.000495455
0.000435314
0.000382996
0.000335418
0.000294237
0.000260968
0.000238026
0.000221172
0.000221506
0.000230572
0.000261205
0.000340324
0.000554722
0.00111238
0.00279787
0.00458287
0.00232893
0.000321569
0.000512971
0.000556486
0.000540835
0.000500098
0.000447891
0.000397741
0.000353027
0.000316879
0.000291739
0.000278528
0.000282811
0.000301754
0.000355313
0.000480614
0.000793924
0.00143883
0.00308546
0.00410373
0.00220542
0.000215338
0.000456598
0.000609719
0.000662019
0.000652771
0.000614015
0.000557711
0.000507304
0.000469016
0.000449928
0.000456981
0.00048686
0.000555017
0.000695472
0.000977303
0.0016291
0.00244328
0.00373532
0.00383287
0.00202443
0.000253664
0.000473409
0.000822311
0.000990607
0.00106042
0.00106952
0.00106737
0.0010758
0.00111079
0.00118917
0.00134037
0.00158261
0.00191389
0.00246123
0.00313376
0.00418219
0.00479219
0.00454153
0.0038121
0.00177049
0.000182823
0.000292588
0.000544925
0.000782105
0.000977641
0.00110284
0.00117718
0.00122429
0.00124945
0.00127358
0.00128759
0.00131561
0.00133847
0.00138844
0.00142431
0.00150343
0.00158101
0.00166752
0.00165037
0.00147626
)
;

boundaryField
{
    movingWall
    {
        Cmu             0.09;
        kappa           0.41;
        E               9.8;
        type            epsilonWallFunction;
        value           nonuniform List<scalar> 
20
(
0.000182823
0.000292588
0.000544925
0.000782105
0.000977641
0.00110284
0.00117718
0.00122429
0.00124945
0.00127358
0.00128759
0.00131561
0.00133847
0.00138844
0.00142431
0.00150343
0.00158101
0.00166752
0.00165037
0.00147626
)
;
    }
    fixedWalls
    {
        Cmu             0.09;
        kappa           0.41;
        E               9.8;
        type            epsilonWallFunction;
        value           nonuniform List<scalar> 
60
(
1.386e-05
6.70593e-05
0.000241455
0.000562852
0.000842127
0.00101391
0.001053
0.00103797
0.000997605
0.000915185
0.000828421
0.000753186
0.000671035
0.00059615
0.000508489
0.00042284
0.000321569
0.000215338
0.000253664
0.000182823
0.000589759
0.00122027
0.00158363
0.00181786
0.00199452
0.0021354
0.00224503
0.00233267
0.0023933
0.00243562
0.00245512
0.0024619
0.00245793
0.00244301
0.00241046
0.00232893
0.00220542
0.00202443
0.00177049
0.00147626
1.386e-05
4.32032e-05
0.000214179
0.000515258
0.000736898
0.000897198
0.0010265
0.00114911
0.00125586
0.00136484
0.00146637
0.00157357
0.00168097
0.00175677
0.00179186
0.00179645
0.00167294
0.001329
0.00081759
0.000589759
)
;
    }
    frontAndBack
    {
        type            empty;
    }
}


// ************************************************************************* //
