/*--------------------------------*- C++ -*----------------------------------*\
| =========                 |                                                 |
| \\      /  F ield         | OpenFOAM: The Open Source CFD Toolbox           |
|  \\    /   O peration     | Version:  5.0                                   |
|   \\  /    A nd           | Web:      www.OpenFOAM.org                      |
|    \\/     M anipulation  |                                                 |
\*---------------------------------------------------------------------------*/
FoamFile
{
    version     2.0;
    format      ascii;
    class       volScalarField;
    location    "6.5";
    object      k;
}
// * * * * * * * * * * * * * * * * * * * * * * * * * * * * * * * * * * * * * //

dimensions      [0 2 -2 0 0 0 0];

internalField   nonuniform List<scalar> 
400
(
4.33875e-06
1.35425e-05
6.70635e-05
0.000161146
0.000230349
0.000280421
0.000320813
0.000359116
0.000392466
0.000426518
0.000458237
0.000491732
0.000525288
0.000548975
0.000559938
0.000561372
0.000522768
0.00041529
0.000255486
0.000184295
2.09927e-05
7.97732e-05
0.000190206
0.000347728
0.000418861
0.000499646
0.000545569
0.000611496
0.00066373
0.000725321
0.000782716
0.00084304
0.000897425
0.000954646
0.00100643
0.00103235
0.00103876
0.000937919
0.000623666
0.000381274
7.55547e-05
0.000267852
0.000448481
0.000536373
0.000599622
0.000655615
0.00069826
0.000750921
0.000796956
0.00084539
0.000888607
0.000930261
0.000969414
0.00101442
0.00105987
0.00109446
0.00110654
0.00105975
0.00077315
0.000494772
0.000176112
0.000479398
0.000581823
0.000627342
0.000669073
0.000701341
0.000733429
0.000769705
0.000802416
0.000835144
0.000862227
0.000890129
0.000926587
0.000975215
0.00103917
0.00110745
0.0011399
0.00114209
0.000914271
0.000567942
0.000263388
0.000596424
0.000641339
0.000652786
0.000675045
0.000697061
0.000721124
0.00073904
0.000745952
0.000746912
0.000749603
0.000766998
0.000805099
0.000869166
0.000967912
0.00109777
0.00119183
0.00121506
0.00104166
0.000623123
0.00031706
0.00063997
0.000650149
0.000650351
0.000666831
0.000674939
0.000675578
0.000658129
0.000633129
0.000617298
0.000611029
0.000617619
0.000654257
0.000726646
0.000849324
0.00102928
0.0012212
0.0012998
0.00118031
0.000667134
0.000329266
0.000635278
0.000643845
0.000640135
0.000642729
0.00062986
0.00060606
0.000568496
0.00053044
0.000503934
0.000492353
0.000491588
0.00052237
0.000592729
0.00072312
0.000935795
0.00122568
0.00137985
0.0013124
0.000701381
0.00032457
0.000619623
0.000627925
0.000618275
0.000609886
0.000584793
0.000546069
0.000498406
0.000454882
0.000423828
0.00040916
0.000406316
0.000428785
0.000488435
0.000609469
0.000829838
0.00117497
0.00144837
0.00145308
0.000728765
0.000311953
0.000586838
0.000600702
0.000592651
0.000579838
0.000548241
0.000502433
0.000451478
0.000407322
0.00037552
0.000359296
0.000355007
0.000370568
0.00041837
0.000522619
0.000730603
0.00109677
0.00149562
0.00157546
0.000747716
0.000286197
0.000557257
0.000574361
0.000569351
0.000555218
0.000521722
0.000474477
0.000424227
0.000381646
0.000351091
0.000334135
0.00032937
0.000340823
0.000378094
0.00046511
0.000656093
0.00102369
0.00151607
0.00170015
0.000760953
0.000259079
0.000517491
0.000544815
0.000545407
0.000534103
0.000503055
0.00045829
0.000411133
0.000371107
0.000342298
0.000325073
0.000320421
0.000329374
0.000359854
0.000433667
0.000603232
0.000962219
0.00152147
0.00180437
0.000767054
0.000235566
0.000483212
0.000522194
0.000526155
0.00051792
0.00049141
0.000450547
0.000408015
0.000371559
0.000343921
0.000326492
0.000321115
0.000327962
0.000354636
0.000421334
0.00057451
0.000910602
0.00151859
0.00189104
0.00076918
0.00020989
0.000438224
0.000493985
0.00050458
0.000500511
0.000482269
0.000447347
0.000409939
0.00037628
0.000350848
0.000334425
0.000330224
0.000336399
0.000359932
0.000420073
0.000564009
0.000877556
0.00150943
0.00193289
0.000767977
0.000186484
0.000408793
0.000477561
0.00049275
0.000489699
0.000476222
0.000448348
0.00041549
0.000386254
0.000363807
0.000348538
0.000346288
0.000353045
0.000376842
0.000434641
0.000567941
0.000864592
0.00149686
0.0019458
0.000763329
0.000159082
0.000360486
0.000449216
0.000477686
0.000480405
0.000473253
0.000452955
0.000425227
0.000399916
0.000380497
0.000366944
0.000367238
0.00037538
0.000401235
0.000460518
0.000592769
0.000864911
0.00148636
0.00189698
0.000753157
0.0001323
0.000331173
0.000433967
0.000476331
0.000485166
0.000479912
0.000464889
0.000441448
0.000418931
0.000401156
0.000389685
0.000391424
0.000402169
0.000432292
0.000497474
0.00064225
0.000896669
0.00148252
0.00180043
0.000727689
0.000100631
0.000266421
0.000394033
0.000474858
0.000501306
0.000499783
0.000490423
0.000470356
0.000449154
0.000431741
0.000423687
0.000427815
0.000443681
0.000483921
0.000564772
0.000746777
0.000992585
0.00150613
0.00163321
0.000689085
6.73716e-05
0.000237851
0.000404378
0.000504949
0.000557838
0.000561357
0.000555619
0.000540442
0.000522638
0.000510891
0.000514246
0.00052987
0.000566384
0.000643546
0.000767019
0.00103493
0.00130302
0.00159394
0.00145825
0.000632522
7.93236e-05
0.000261905
0.000464235
0.000582591
0.000662651
0.00069443
0.000715282
0.000731555
0.00075985
0.000799126
0.000866018
0.000957714
0.00108629
0.00127235
0.00148863
0.00180045
0.00187964
0.00173966
0.0013589
0.000553169
5.71688e-05
9.14855e-05
0.000170376
0.000244545
0.00030566
0.000344794
0.000368029
0.00038275
0.000390603
0.000398125
0.000402487
0.000411215
0.000418337
0.000433912
0.000445094
0.000469769
0.000493997
0.000520998
0.000515633
0.000461212
)
;

boundaryField
{
    movingWall
    {
        type            kqRWallFunction;
        value           nonuniform List<scalar> 
20
(
5.71688e-05
9.14855e-05
0.000170376
0.000244545
0.00030566
0.000344794
0.000368029
0.00038275
0.000390603
0.000398125
0.000402487
0.000411215
0.000418337
0.000433912
0.000445094
0.000469769
0.000493997
0.000520998
0.000515633
0.000461212
)
;
    }
    fixedWalls
    {
        type            kqRWallFunction;
        value           nonuniform List<scalar> 
60
(
4.33875e-06
2.09927e-05
7.55547e-05
0.000176112
0.000263388
0.00031706
0.000329266
0.00032457
0.000311953
0.000286197
0.000259079
0.000235566
0.00020989
0.000186484
0.000159082
0.0001323
0.000100631
6.73716e-05
7.93236e-05
5.71688e-05
0.000184295
0.000381274
0.000494772
0.000567942
0.000623123
0.000667134
0.000701381
0.000728765
0.000747716
0.000760953
0.000767054
0.00076918
0.000767977
0.000763329
0.000753157
0.000727689
0.000689085
0.000632522
0.000553169
0.000461212
4.33875e-06
1.35425e-05
6.70635e-05
0.000161146
0.000230349
0.000280421
0.000320813
0.000359116
0.000392466
0.000426518
0.000458237
0.000491732
0.000525288
0.000548975
0.000559938
0.000561372
0.000522768
0.00041529
0.000255486
0.000184295
)
;
    }
    frontAndBack
    {
        type            empty;
    }
}


// ************************************************************************* //
