/*--------------------------------*- C++ -*----------------------------------*\
| =========                 |                                                 |
| \\      /  F ield         | OpenFOAM: The Open Source CFD Toolbox           |
|  \\    /   O peration     | Version:  5.0                                   |
|   \\  /    A nd           | Web:      www.OpenFOAM.org                      |
|    \\/     M anipulation  |                                                 |
\*---------------------------------------------------------------------------*/
FoamFile
{
    version     2.0;
    format      ascii;
    class       volScalarField;
    location    "6.5";
    object      nut;
}
// * * * * * * * * * * * * * * * * * * * * * * * * * * * * * * * * * * * * * //

dimensions      [0 2 -1 0 0 0 0];

internalField   nonuniform List<scalar> 
400
(
1.22239e-07
3.82052e-07
1.8899e-06
4.53584e-06
6.48046e-06
7.88813e-06
9.02374e-06
1.01007e-05
1.10384e-05
1.19959e-05
1.28878e-05
1.38297e-05
1.47733e-05
1.54395e-05
1.57477e-05
1.5788e-05
1.47022e-05
1.16794e-05
7.18523e-06
5.18314e-06
5.91452e-07
2.89573e-06
5.66357e-06
1.23298e-05
1.63835e-05
2.24904e-05
2.64813e-05
3.19322e-05
3.60567e-05
4.00999e-05
4.3066e-05
4.53403e-05
4.62938e-05
4.68567e-05
4.65952e-05
4.42425e-05
4.27608e-05
3.46565e-05
1.91533e-05
1.07216e-05
2.1278e-06
9.92307e-06
1.98206e-05
2.69912e-05
3.37148e-05
4.03324e-05
4.59539e-05
5.10512e-05
5.4296e-05
5.69468e-05
5.84739e-05
5.93971e-05
5.94427e-05
5.92795e-05
5.82383e-05
5.53036e-05
5.13869e-05
4.53844e-05
2.59786e-05
1.39123e-05
4.95938e-06
2.20426e-05
3.08233e-05
3.78073e-05
4.44853e-05
5.04016e-05
5.53182e-05
5.88802e-05
6.17869e-05
6.44422e-05
6.59203e-05
6.64044e-05
6.63489e-05
6.59641e-05
6.49394e-05
6.23103e-05
5.63223e-05
5.30256e-05
3.43535e-05
1.59695e-05
7.41407e-06
2.96731e-05
3.80919e-05
4.40169e-05
5.11453e-05
5.70038e-05
6.23335e-05
6.61251e-05
6.81852e-05
6.86751e-05
6.84312e-05
6.82561e-05
6.8327e-05
6.84483e-05
6.87757e-05
6.85988e-05
6.22032e-05
5.67529e-05
4.10521e-05
1.75207e-05
8.92333e-06
3.40803e-05
4.13864e-05
4.90356e-05
5.69939e-05
6.27422e-05
6.70538e-05
6.8305e-05
6.82403e-05
6.8362e-05
6.83526e-05
6.81122e-05
6.77108e-05
6.77489e-05
6.86538e-05
7.0197e-05
6.77829e-05
6.04652e-05
4.74001e-05
1.87581e-05
9.26636e-06
3.46701e-05
4.47454e-05
5.33683e-05
6.05897e-05
6.47506e-05
6.73978e-05
6.80112e-05
6.83879e-05
6.90126e-05
6.94356e-05
6.95442e-05
6.85044e-05
6.75233e-05
6.7903e-05
7.03724e-05
7.30953e-05
6.38577e-05
5.25171e-05
1.9721e-05
9.13423e-06
3.55547e-05
4.70821e-05
5.54753e-05
6.18199e-05
6.53831e-05
6.73163e-05
6.81657e-05
6.94887e-05
7.1315e-05
7.27264e-05
7.33461e-05
7.21358e-05
6.93404e-05
6.7649e-05
6.94481e-05
7.47392e-05
6.77638e-05
5.721e-05
2.04911e-05
8.77933e-06
3.52919e-05
4.75424e-05
5.61262e-05
6.21789e-05
6.55007e-05
6.72967e-05
6.87029e-05
7.09971e-05
7.37506e-05
7.55921e-05
7.61374e-05
7.47889e-05
7.20545e-05
6.86054e-05
6.77709e-05
7.22385e-05
7.13464e-05
6.05664e-05
2.10241e-05
8.05494e-06
3.49626e-05
4.7402e-05
5.60642e-05
6.19646e-05
6.52781e-05
6.71864e-05
6.89979e-05
7.1649e-05
7.46472e-05
7.64923e-05
7.6802e-05
7.57325e-05
7.34599e-05
7.03555e-05
6.82038e-05
7.07968e-05
7.3194e-05
6.38095e-05
2.13967e-05
7.29218e-06
3.30919e-05
4.60964e-05
5.50419e-05
6.11966e-05
6.47007e-05
6.67493e-05
6.84902e-05
7.05334e-05
7.30504e-05
7.50471e-05
7.57559e-05
7.50585e-05
7.35925e-05
7.11459e-05
6.882e-05
7.03387e-05
7.47973e-05
6.62051e-05
2.15686e-05
6.63079e-06
3.06573e-05
4.48028e-05
5.36545e-05
5.99494e-05
6.39059e-05
6.56533e-05
6.70906e-05
6.92178e-05
7.11695e-05
7.2468e-05
7.30617e-05
7.31784e-05
7.29997e-05
7.12276e-05
6.89831e-05
6.99519e-05
7.57895e-05
6.80126e-05
2.16286e-05
5.90854e-06
2.69263e-05
4.16162e-05
5.12228e-05
5.7731e-05
6.22753e-05
6.41737e-05
6.58028e-05
6.70254e-05
6.81821e-05
6.90957e-05
6.99159e-05
7.02582e-05
7.09171e-05
7.1027e-05
6.91877e-05
6.90393e-05
7.59506e-05
6.87766e-05
2.15958e-05
5.25012e-06
2.41487e-05
3.86761e-05
4.86227e-05
5.49752e-05
6.00525e-05
6.27278e-05
6.38127e-05
6.46702e-05
6.54475e-05
6.61347e-05
6.72246e-05
6.78283e-05
6.90458e-05
7.01058e-05
6.954e-05
6.87016e-05
7.51532e-05
6.88858e-05
2.14655e-05
4.47925e-06
1.97457e-05
3.37979e-05
4.45947e-05
5.14708e-05
5.72165e-05
6.0688e-05
6.18819e-05
6.25962e-05
6.31098e-05
6.37707e-05
6.48889e-05
6.56837e-05
6.7148e-05
6.85454e-05
6.87837e-05
6.76649e-05
7.39353e-05
6.65339e-05
2.11794e-05
3.72552e-06
1.71549e-05
3.05595e-05
4.12151e-05
4.86654e-05
5.41218e-05
5.79902e-05
5.96079e-05
6.05258e-05
6.08478e-05
6.17932e-05
6.22519e-05
6.31326e-05
6.43895e-05
6.54471e-05
6.69231e-05
6.50512e-05
7.06992e-05
6.36584e-05
2.04634e-05
2.8342e-06
1.24534e-05
2.51104e-05
3.75236e-05
4.52266e-05
5.01918e-05
5.44232e-05
5.64012e-05
5.7298e-05
5.75036e-05
5.80048e-05
5.82451e-05
5.87126e-05
5.93172e-05
5.973e-05
6.32188e-05
6.16266e-05
6.61682e-05
5.84993e-05
1.93775e-05
1.89704e-06
1.11511e-05
2.41373e-05
3.4663e-05
4.2904e-05
4.61894e-05
4.98182e-05
5.1817e-05
5.24152e-05
5.22103e-05
5.20819e-05
5.19011e-05
5.20185e-05
5.35947e-05
5.41784e-05
5.91722e-05
6.25423e-05
6.1215e-05
4.99322e-05
1.77866e-05
2.23248e-06
1.30405e-05
2.35875e-05
3.08367e-05
3.7268e-05
4.05798e-05
4.31403e-05
4.47717e-05
4.67805e-05
4.83315e-05
5.03586e-05
5.21602e-05
5.549e-05
5.91973e-05
6.36428e-05
6.97591e-05
6.63523e-05
5.99747e-05
4.35969e-05
1.55548e-05
1.60891e-06
2.57449e-06
4.79429e-06
6.88169e-06
8.60081e-06
9.70173e-06
1.03554e-05
1.07693e-05
1.09899e-05
1.12009e-05
1.13232e-05
1.15679e-05
1.17676e-05
1.22045e-05
1.25182e-05
1.32108e-05
1.38917e-05
1.46502e-05
1.44992e-05
1.29682e-05
)
;

boundaryField
{
    movingWall
    {
        type            nutkWallFunction;
        Cmu             0.09;
        kappa           0.41;
        E               9.8;
        value           uniform 0;
    }
    fixedWalls
    {
        type            nutkWallFunction;
        Cmu             0.09;
        kappa           0.41;
        E               9.8;
        value           uniform 0;
    }
    frontAndBack
    {
        type            empty;
    }
}


// ************************************************************************* //
