/*--------------------------------*- C++ -*----------------------------------*\
| =========                 |                                                 |
| \\      /  F ield         | OpenFOAM: The Open Source CFD Toolbox           |
|  \\    /   O peration     | Version:  5.0                                   |
|   \\  /    A nd           | Web:      www.OpenFOAM.org                      |
|    \\/     M anipulation  |                                                 |
\*---------------------------------------------------------------------------*/
FoamFile
{
    version     2.0;
    format      ascii;
    class       volScalarField;
    location    "6.5";
    object      p;
}
// * * * * * * * * * * * * * * * * * * * * * * * * * * * * * * * * * * * * * //

dimensions      [0 2 -2 0 0 0 0];

internalField   nonuniform List<scalar> 
400
(
2.98901e-08
-6.35831e-05
-0.00013724
-0.000255082
-0.000905627
-0.00211856
-0.00359068
-0.00502326
-0.00619224
-0.00697654
-0.0072826
-0.00702827
-0.00618957
-0.00474455
-0.00268665
-0.000127154
0.00266019
0.00513147
0.00666534
0.00699107
5.72383e-05
-1.67974e-05
-0.000172226
-0.000648532
-0.00156357
-0.00287544
-0.00432588
-0.00569536
-0.00681872
-0.00758731
-0.00790762
-0.00773431
-0.00703791
-0.00575365
-0.00388255
-0.00148288
0.00122715
0.0038026
0.00564057
0.00637691
0.000224818
-5.23021e-05
-0.000558275
-0.00142875
-0.00266547
-0.00410312
-0.00555041
-0.00686578
-0.00794193
-0.00866186
-0.00896488
-0.00882532
-0.0082155
-0.0071248
-0.00553452
-0.00346645
-0.0010369
0.00147794
0.00360021
0.00467449
7.3884e-05
-0.000408568
-0.00130423
-0.00257003
-0.00406637
-0.00560485
-0.00704304
-0.00827567
-0.00921648
-0.00982304
-0.0100761
-0.00996141
-0.00945779
-0.00855499
-0.00724105
-0.00552256
-0.00345258
-0.00118239
0.000939285
0.00207929
-0.00058704
-0.00124304
-0.00241881
-0.00392215
-0.0055325
-0.00707564
-0.00843908
-0.00955122
-0.0103716
-0.0108879
-0.0110966
-0.0109955
-0.0105792
-0.00984417
-0.00878206
-0.00739221
-0.00569588
-0.0037655
-0.00183809
-0.000763555
-0.00173849
-0.00247684
-0.00375734
-0.0053103
-0.00690529
-0.0083758
-0.00963019
-0.0106232
-0.0113405
-0.011782
-0.0119529
-0.0118605
-0.0115115
-0.0109102
-0.0100551
-0.00894333
-0.0075824
-0.00601021
-0.00445173
-0.00343666
-0.00310794
-0.00385674
-0.00510201
-0.00658969
-0.00809343
-0.00945327
-0.0105916
-0.0114776
-0.0121082
-0.0124901
-0.0126336
-0.0125502
-0.0122521
-0.0117505
-0.0110518
-0.0101563
-0.00906914
-0.00781394
-0.00661331
-0.00571268
-0.00440559
-0.00511461
-0.00626504
-0.00764876
-0.00903803
-0.0102836
-0.0113175
-0.012116
-0.0126802
-0.0130195
-0.0131456
-0.0130713
-0.0128102
-0.0123784
-0.0117897
-0.0110511
-0.0101716
-0.00916982
-0.00826606
-0.00747285
-0.0054277
-0.00609044
-0.00713364
-0.00841705
-0.00970228
-0.0108534
-0.0118085
-0.0125454
-0.0130656
-0.0133782
-0.0134947
-0.0134271
-0.0131893
-0.0127996
-0.0122793
-0.0116439
-0.0109149
-0.0100889
-0.0094004
-0.00870465
-0.00609703
-0.00668505
-0.00764468
-0.00885785
-0.0100667
-0.0111565
-0.0120653
-0.0127693
-0.0132675
-0.0135676
-0.01368
-0.0136154
-0.0133876
-0.0130159
-0.0125273
-0.0119448
-0.0113221
-0.0105863
-0.0100733
-0.00940623
-0.00637419
-0.00689056
-0.00779399
-0.00895889
-0.0101257
-0.0111904
-0.0120867
-0.0127859
-0.0132833
-0.0135842
-0.013697
-0.0136316
-0.0134013
-0.0130262
-0.0125378
-0.0119593
-0.0114123
-0.0106646
-0.0103265
-0.00958763
-0.006251
-0.00672598
-0.00758997
-0.0087259
-0.0098843
-0.0109552
-0.0118692
-0.0125903
-0.0131076
-0.0134223
-0.0135407
-0.0134711
-0.0132269
-0.0128288
-0.012312
-0.0117187
-0.0111573
-0.0103609
-0.0102126
-0.0092384
-0.00579845
-0.00625424
-0.00708662
-0.0081864
-0.0093555
-0.0104558
-0.0114124
-0.0121796
-0.0127369
-0.0130791
-0.0132092
-0.0131337
-0.0128658
-0.0124276
-0.0118599
-0.0112117
-0.0105827
-0.00973733
-0.00971412
-0.0083738
-0.00513002
-0.00555138
-0.00633489
-0.00738166
-0.00855416
-0.00969732
-0.010718
-0.0115544
-0.0121722
-0.0125574
-0.012708
-0.0126276
-0.0123293
-0.0118369
-0.0111971
-0.0104595
-0.00973261
-0.00882608
-0.0088033
-0.00704665
-0.00439908
-0.00474395
-0.00541633
-0.00637123
-0.00752053
-0.00870723
-0.00980669
-0.0107319
-0.0114302
-0.0118752
-0.0120582
-0.0119793
-0.011649
-0.0110926
-0.0103631
-0.00950634
-0.00864957
-0.00762195
-0.00747357
-0.00530166
-0.00376218
-0.00393112
-0.00438982
-0.00519525
-0.00629608
-0.00752314
-0.00871221
-0.00974391
-0.0105431
-0.0110672
-0.011299
-0.011234
-0.0108846
-0.0102653
-0.00943408
-0.00842605
-0.00738232
-0.006132
-0.00570946
-0.00293727
-0.00335795
-0.0032193
-0.00335219
-0.00395302
-0.00498217
-0.00624136
-0.00752388
-0.00867408
-0.00959122
-0.0102142
-0.010516
-0.0104861
-0.0101374
-0.00946445
-0.00852338
-0.00731866
-0.00597946
-0.00432328
-0.00326829
0.000866488
-0.00317059
-0.00257777
-0.00233948
-0.00272502
-0.00367731
-0.00496069
-0.00633195
-0.00760731
-0.0086582
-0.00940126
-0.0097959
-0.0098206
-0.00948487
-0.00878232
-0.00773838
-0.00628662
-0.00450881
-0.00206901
0.000473209
0.00793899
-0.003138
-0.00201471
-0.00152626
-0.00175514
-0.00264055
-0.00394334
-0.00539356
-0.00678119
-0.00795155
-0.00881042
-0.00930291
-0.00940853
-0.00911152
-0.00839317
-0.00721338
-0.00548876
-0.00311326
0.000866452
0.00671901
0.0196348
-0.00375676
-0.000750557
-0.000145332
-0.000554237
-0.00149982
-0.00285617
-0.00440989
-0.00591628
-0.0072024
-0.00815759
-0.00872687
-0.00887423
-0.00858132
-0.00782122
-0.00655702
-0.00461059
-0.00116983
0.00537154
0.017054
0.0348812
)
;

boundaryField
{
    movingWall
    {
        type            zeroGradient;
    }
    fixedWalls
    {
        type            zeroGradient;
    }
    frontAndBack
    {
        type            empty;
    }
}


// ************************************************************************* //
