/*--------------------------------*- C++ -*----------------------------------*\
| =========                 |                                                 |
| \\      /  F ield         | OpenFOAM: The Open Source CFD Toolbox           |
|  \\    /   O peration     | Version:  5.0                                   |
|   \\  /    A nd           | Web:      www.OpenFOAM.org                      |
|    \\/     M anipulation  |                                                 |
\*---------------------------------------------------------------------------*/
FoamFile
{
    version     2.0;
    format      ascii;
    class       surfaceScalarField;
    location    "6.5";
    object      phi;
}
// * * * * * * * * * * * * * * * * * * * * * * * * * * * * * * * * * * * * * //

dimensions      [0 3 -1 0 0 0 0];

internalField   nonuniform List<scalar> 
760
(
1.4153e-07
-1.41533e-07
-5.56478e-08
1.97178e-07
-7.51706e-07
6.96058e-07
-1.94436e-06
1.19266e-06
-3.28035e-06
1.33599e-06
-4.47871e-06
1.19835e-06
-5.50087e-06
1.02216e-06
-6.31328e-06
8.12412e-07
-6.91607e-06
6.02786e-07
-7.3217e-06
4.05626e-07
-7.54478e-06
2.2308e-07
-7.58033e-06
3.55512e-08
-7.41591e-06
-1.64421e-07
-7.05158e-06
-3.64329e-07
-6.42497e-06
-6.26607e-07
-5.50523e-06
-9.19738e-07
-4.24124e-06
-1.26399e-06
-2.67261e-06
-1.56863e-06
-1.01834e-06
-1.65427e-06
-1.01834e-06
-2.91835e-07
1.50302e-07
-1.16616e-06
1.0715e-06
-2.44783e-06
1.97773e-06
-3.67384e-06
2.41867e-06
-4.68566e-06
2.34781e-06
-5.58427e-06
2.09696e-06
-6.31712e-06
1.75501e-06
-6.89615e-06
1.39144e-06
-7.33245e-06
1.03908e-06
-7.6247e-06
6.97879e-07
-7.75924e-06
3.57623e-07
-7.71903e-06
-4.65913e-09
-7.54333e-06
-3.40125e-07
-7.18343e-06
-7.24226e-07
-6.63031e-06
-1.17972e-06
-5.83882e-06
-1.71123e-06
-4.76819e-06
-2.33462e-06
-3.35921e-06
-2.97762e-06
-1.64694e-06
-3.36653e-06
-2.66528e-06
-8.82614e-07
1.03292e-06
-2.1087e-06
2.29759e-06
-3.22825e-06
3.09727e-06
-4.14209e-06
3.33252e-06
-4.9126e-06
3.11832e-06
-5.55065e-06
2.73501e-06
-6.05342e-06
2.25778e-06
-6.4152e-06
1.75322e-06
-6.64959e-06
1.27347e-06
-6.76017e-06
8.08461e-07
-6.76713e-06
3.64578e-07
-6.69074e-06
-8.10441e-08
-6.50312e-06
-5.27743e-07
-6.19623e-06
-1.03112e-06
-5.75501e-06
-1.62095e-06
-5.14241e-06
-2.32383e-06
-4.32193e-06
-3.1551e-06
-3.22688e-06
-4.07267e-06
-1.78143e-06
-4.81198e-06
-4.44672e-06
-1.12791e-06
2.16083e-06
-2.27085e-06
3.44053e-06
-3.20166e-06
4.02808e-06
-3.91106e-06
4.04192e-06
-4.47041e-06
3.67766e-06
-4.89291e-06
3.15752e-06
-5.19301e-06
2.55788e-06
-5.39461e-06
1.95482e-06
-5.5073e-06
1.38616e-06
-5.54685e-06
8.48014e-07
-5.51676e-06
3.34489e-07
-5.42264e-06
-1.75164e-07
-5.25048e-06
-6.99903e-07
-4.99913e-06
-1.28248e-06
-4.65822e-06
-1.96185e-06
-4.20144e-06
-2.78061e-06
-3.5899e-06
-3.76663e-06
-2.76002e-06
-4.90255e-06
-1.58327e-06
-5.98874e-06
-6.02998e-06
-1.08535e-06
3.24618e-06
-2.05599e-06
4.41118e-06
-2.80335e-06
4.77544e-06
-3.35434e-06
4.5929e-06
-3.75884e-06
4.08217e-06
-4.03917e-06
3.43785e-06
-4.22408e-06
2.74279e-06
-4.33727e-06
2.06801e-06
-4.38727e-06
1.43616e-06
-4.38306e-06
8.4381e-07
-4.32752e-06
2.78948e-07
-4.22382e-06
-2.78864e-07
-4.06888e-06
-8.54841e-07
-3.865e-06
-1.48636e-06
-3.60768e-06
-2.21917e-06
-3.27995e-06
-3.10834e-06
-2.84261e-06
-4.20397e-06
-2.22534e-06
-5.51982e-06
-1.32312e-06
-6.89095e-06
-7.3531e-06
-9.03414e-07
4.14959e-06
-1.67675e-06
5.18451e-06
-2.26217e-06
5.36087e-06
-2.68436e-06
5.01508e-06
-2.97874e-06
4.37656e-06
-3.17209e-06
3.6312e-06
-3.29298e-06
2.86369e-06
-3.35898e-06
2.134e-06
-3.37841e-06
1.45559e-06
-3.35668e-06
8.22076e-07
-3.29611e-06
2.18382e-07
-3.1982e-06
-3.76771e-07
-3.06404e-06
-9.89002e-07
-2.8976e-06
-1.6528e-06
-2.70129e-06
-2.41548e-06
-2.46966e-06
-3.33997e-06
-2.18044e-06
-4.4932e-06
-1.76282e-06
-5.93744e-06
-1.06778e-06
-7.58599e-06
-8.42089e-06
-6.8721e-07
4.8368e-06
-1.25896e-06
5.75626e-06
-1.69491e-06
5.79682e-06
-2.00487e-06
5.32503e-06
-2.21823e-06
4.58992e-06
-2.35669e-06
3.76966e-06
-2.44214e-06
2.94914e-06
-2.48695e-06
2.1788e-06
-2.49795e-06
1.46659e-06
-2.4786e-06
8.02726e-07
-2.42937e-06
1.69145e-07
-2.34977e-06
-4.56371e-07
-2.24062e-06
-1.09815e-06
-2.10708e-06
-1.78633e-06
-1.95753e-06
-2.56504e-06
-1.79511e-06
-3.50239e-06
-1.60652e-06
-4.68179e-06
-1.3327e-06
-6.21125e-06
-8.75581e-07
-8.04312e-06
-9.29647e-06
-4.47655e-07
5.28446e-06
-8.45217e-07
6.15382e-06
-1.1444e-06
6.096e-06
-1.35876e-06
5.5394e-06
-1.50875e-06
4.73991e-06
-1.60915e-06
3.87006e-06
-1.6744e-06
3.01439e-06
-1.71198e-06
2.21638e-06
-1.72621e-06
1.48082e-06
-1.71854e-06
7.95059e-07
-1.68791e-06
1.3851e-07
-1.63279e-06
-5.11486e-07
-1.55317e-06
-1.17778e-06
-1.45394e-06
-1.88556e-06
-1.34714e-06
-2.67184e-06
-1.24453e-06
-3.605e-06
-1.1394e-06
-4.78691e-06
-9.80255e-07
-6.3704e-06
-6.79456e-07
-8.34392e-06
-9.97592e-06
-2.3912e-07
5.52358e-06
-4.58877e-07
6.37358e-06
-6.26994e-07
6.26412e-06
-7.56108e-07
5.66851e-06
-8.51329e-07
4.83513e-06
-9.20752e-07
3.93948e-06
-9.71397e-07
3.06504e-06
-1.00605e-06
2.25103e-06
-1.02622e-06
1.501e-06
-1.03175e-06
8.0059e-07
-1.02107e-06
1.27831e-07
-9.92569e-07
-5.39989e-07
-9.46276e-07
-1.22407e-06
-8.86685e-07
-1.94515e-06
-8.2604e-07
-2.73249e-06
-7.80608e-07
-3.65044e-06
-7.51276e-07
-4.81625e-06
-6.93751e-07
-6.42792e-06
-5.44313e-07
-8.49335e-06
-1.05202e-05
-2.32389e-08
5.54682e-06
-9.58994e-08
6.44624e-06
-1.49397e-07
6.31762e-06
-1.94529e-07
5.71364e-06
-2.34621e-07
4.87522e-06
-2.72152e-07
3.97702e-06
-3.07069e-07
3.09995e-06
-3.37362e-07
2.28132e-06
-3.61706e-07
1.52534e-06
-3.78939e-07
8.17823e-07
-3.87821e-07
1.36712e-07
-3.8739e-07
-5.4042e-07
-3.78051e-07
-1.23341e-06
-3.6388e-07
-1.95932e-06
-3.56634e-07
-2.73973e-06
-3.6929e-07
-3.63778e-06
-4.22945e-07
-4.76259e-06
-4.57776e-07
-6.39309e-06
-4.15595e-07
-8.53553e-06
-1.09358e-05
1.74332e-07
5.37248e-06
2.61966e-07
6.3586e-06
3.28971e-07
6.25061e-06
3.54367e-07
5.68825e-06
3.64232e-07
4.86536e-06
3.59325e-07
3.98192e-06
3.43565e-07
3.11571e-06
3.21561e-07
2.30333e-06
2.96383e-07
1.55052e-06
2.69642e-07
8.44564e-07
2.41845e-07
1.64509e-07
2.12896e-07
-5.11471e-07
1.81736e-07
-1.20225e-06
1.45093e-07
-1.92268e-06
9.32728e-08
-2.68791e-06
-3.53557e-09
-3.54097e-06
-1.17179e-07
-4.64895e-06
-2.57158e-07
-6.25311e-06
-3.28774e-07
-8.46392e-06
-1.12646e-05
3.60865e-07
5.01162e-06
5.96067e-07
6.1234e-06
7.74977e-07
6.0717e-06
8.84738e-07
5.57849e-06
9.534e-07
4.79669e-06
9.89345e-07
3.94598e-06
1.0002e-06
3.10486e-06
9.92672e-07
2.31085e-06
9.7116e-07
1.57203e-06
9.37572e-07
8.78152e-07
8.91515e-07
2.10565e-07
8.31672e-07
-4.51627e-07
7.55883e-07
-1.12646e-06
6.61054e-07
-1.82785e-06
5.38874e-07
-2.56573e-06
3.81179e-07
-3.38328e-06
1.67082e-07
-4.43485e-06
-8.50808e-08
-6.00095e-06
-2.34908e-07
-8.31409e-06
-1.14995e-05
5.41433e-07
4.47019e-06
9.20956e-07
5.74388e-06
1.20652e-06
5.78614e-06
1.40605e-06
5.37896e-06
1.54176e-06
4.66098e-06
1.62864e-06
3.8591e-06
1.67602e-06
3.05749e-06
1.69136e-06
2.2955e-06
1.6798e-06
1.5836e-06
1.64333e-06
9.14617e-07
1.58059e-06
2.73306e-07
1.48933e-06
-3.6037e-07
1.36601e-06
-1.00314e-06
1.2072e-06
-1.66903e-06
1.00873e-06
-2.36727e-06
7.62979e-07
-3.13752e-06
4.4464e-07
-4.11651e-06
9.45654e-08
-5.65087e-06
-1.29714e-07
-8.08981e-06
-1.16292e-05
6.92927e-07
3.77726e-06
1.20257e-06
5.23423e-06
1.59263e-06
5.39608e-06
1.89915e-06
5.07243e-06
2.12107e-06
4.43906e-06
2.2759e-06
3.70426e-06
2.37436e-06
2.95903e-06
2.42462e-06
2.24525e-06
2.43202e-06
1.5762e-06
2.3986e-06
9.48033e-07
2.32221e-06
3.49699e-07
2.19939e-06
-2.37548e-07
2.02653e-06
-8.30283e-07
1.79919e-06
-1.44169e-06
1.51519e-06
-2.08327e-06
1.17181e-06
-2.79415e-06
7.5197e-07
-3.69667e-06
3.24277e-07
-5.22318e-06
3.39748e-08
-7.79951e-06
-1.15953e-05
8.14561e-07
2.9627e-06
1.43727e-06
4.61153e-06
1.93884e-06
4.8945e-06
2.36103e-06
4.65024e-06
2.68691e-06
4.11319e-06
2.92699e-06
3.46418e-06
3.09183e-06
2.79419e-06
3.19002e-06
2.14705e-06
3.22676e-06
1.53946e-06
3.20414e-06
9.7066e-07
3.11964e-06
4.34201e-07
2.96662e-06
-8.45329e-08
2.74432e-06
-6.07984e-07
2.44646e-06
-1.14382e-06
2.07144e-06
-1.70825e-06
1.62499e-06
-2.3477e-06
1.0973e-06
-3.16897e-06
5.72768e-07
-4.69865e-06
1.66027e-07
-7.39277e-06
-1.14292e-05
8.09966e-07
2.15273e-06
1.52441e-06
3.89708e-06
2.16177e-06
4.25715e-06
2.72228e-06
4.08973e-06
3.18141e-06
3.65406e-06
3.53592e-06
3.10968e-06
3.79264e-06
2.53747e-06
3.95955e-06
1.98015e-06
4.04161e-06
1.4574e-06
4.0413e-06
9.70972e-07
3.95721e-06
5.18292e-07
3.78539e-06
8.72812e-08
3.5179e-06
-3.4049e-07
3.15526e-06
-7.81191e-07
2.6929e-06
-1.24589e-06
2.14625e-06
-1.80104e-06
1.51029e-06
-2.53302e-06
8.78651e-07
-4.06701e-06
3.55616e-07
-6.86973e-06
-1.10736e-05
7.03264e-07
1.44947e-06
1.49319e-06
3.10715e-06
2.27958e-06
3.47077e-06
2.99141e-06
3.37789e-06
3.59639e-06
3.04909e-06
4.08323e-06
2.62284e-06
4.44915e-06
2.17154e-06
4.6994e-06
1.7299e-06
4.83955e-06
1.31725e-06
4.87334e-06
9.37177e-07
4.80311e-06
5.88521e-07
4.63022e-06
2.60173e-07
4.33818e-06
-4.84543e-08
3.94108e-06
-3.84082e-07
3.42103e-06
-7.25848e-07
2.79846e-06
-1.17847e-06
2.07944e-06
-1.814e-06
1.33774e-06
-3.32531e-06
6.32773e-07
-6.16477e-06
-1.04408e-05
1.90107e-07
1.25936e-06
1.08923e-06
2.20803e-06
2.05865e-06
2.50134e-06
2.96856e-06
2.46798e-06
3.75864e-06
2.259e-06
4.40931e-06
1.97216e-06
4.91747e-06
1.66338e-06
5.28412e-06
1.36326e-06
5.51799e-06
1.08338e-06
5.62591e-06
8.29257e-07
5.61468e-06
5.99747e-07
5.49006e-06
3.84788e-07
5.25592e-06
1.85685e-07
4.91308e-06
-4.12345e-08
4.42491e-06
-2.37679e-07
3.81952e-06
-5.7308e-07
3.07399e-06
-1.06847e-06
2.24579e-06
-2.49711e-06
1.16861e-06
-5.08758e-06
-9.27223e-06
-5.81294e-07
1.84066e-06
4.13498e-07
1.21324e-06
1.67632e-06
1.23853e-06
2.85567e-06
1.28863e-06
3.87752e-06
1.23715e-06
4.73628e-06
1.1134e-06
5.43721e-06
9.62456e-07
5.9764e-06
8.2406e-07
6.37246e-06
6.87332e-07
6.62975e-06
5.71965e-07
6.77347e-06
4.5603e-07
6.79815e-06
3.60105e-07
6.72551e-06
2.58324e-07
6.52181e-06
1.62462e-07
6.23001e-06
5.4125e-08
5.81939e-06
-1.62456e-07
5.22753e-06
-4.76616e-07
4.36618e-06
-1.63576e-06
2.59229e-06
-3.31369e-06
-6.67994e-06
1.84066e-06
3.05389e-06
4.29242e-06
5.58105e-06
6.8182e-06
7.93161e-06
8.89406e-06
9.71812e-06
1.04055e-05
1.09774e-05
1.14334e-05
1.17936e-05
1.20519e-05
1.22143e-05
1.22685e-05
1.2106e-05
1.16294e-05
9.99363e-06
6.67994e-06
)
;

boundaryField
{
    movingWall
    {
        type            calculated;
        value           uniform 0;
    }
    fixedWalls
    {
        type            calculated;
        value           uniform 0;
    }
    frontAndBack
    {
        type            empty;
        value           nonuniform 0();
    }
}


// ************************************************************************* //
