/*--------------------------------*- C++ -*----------------------------------*\
| =========                 |                                                 |
| \\      /  F ield         | OpenFOAM: The Open Source CFD Toolbox           |
|  \\    /   O peration     | Version:  5.0                                   |
|   \\  /    A nd           | Web:      www.OpenFOAM.org                      |
|    \\/     M anipulation  |                                                 |
\*---------------------------------------------------------------------------*/
FoamFile
{
    version     2.0;
    format      ascii;
    class       volVectorField;
    location    "6.5";
    object      U;
}
// * * * * * * * * * * * * * * * * * * * * * * * * * * * * * * * * * * * * * //

dimensions      [0 1 -1 0 0 0 0];

internalField   nonuniform List<vector> 
400
(
(0.00206464 -0.00255779 0)
(0.00324368 -0.000728233 0)
(-0.00530257 0.00281571 0)
(-0.0222608 0.00927549 0)
(-0.0546933 0.0138518 0)
(-0.0800643 0.0117989 0)
(-0.102976 0.0103203 0)
(-0.120441 0.00794309 0)
(-0.134307 0.006142 0)
(-0.143931 0.00395518 0)
(-0.149831 0.00223667 0)
(-0.152241 0.000405205 0)
(-0.151434 -0.00244182 0)
(-0.145292 -0.00459696 0)
(-0.135034 -0.00777855 0)
(-0.118432 -0.0106841 0)
(-0.0962018 -0.0139665 0)
(-0.067744 -0.0159181 0)
(-0.0361734 -0.0144017 0)
(-0.00849247 -0.0040345 0)
(-0.00123942 -0.0034674 0)
(-0.0102917 0.00927141 0)
(-0.0343312 0.0269142 0)
(-0.061862 0.0383122 0)
(-0.0857388 0.0376127 0)
(-0.104842 0.0339428 0)
(-0.121261 0.0287154 0)
(-0.133314 0.0232282 0)
(-0.143637 0.0169841 0)
(-0.150607 0.0113933 0)
(-0.154871 0.00594767 0)
(-0.155832 0.00056869 0)
(-0.153615 -0.00534878 0)
(-0.148088 -0.0119201 0)
(-0.13866 -0.0199511 0)
(-0.124496 -0.0292359 0)
(-0.105265 -0.0398444 0)
(-0.0806342 -0.0494044 0)
(-0.0503116 -0.0520883 0)
(-0.0184 -0.0339118 0)
(-0.00712667 0.0105709 0)
(-0.0288726 0.0355402 0)
(-0.0537949 0.0523222 0)
(-0.0752138 0.0579514 0)
(-0.0923758 0.0546736 0)
(-0.106158 0.0481007 0)
(-0.117328 0.0396782 0)
(-0.125766 0.0307808 0)
(-0.131762 0.0227806 0)
(-0.134717 0.0148401 0)
(-0.13591 0.00703216 0)
(-0.135025 -0.000929091 0)
(-0.132697 -0.00930316 0)
(-0.127594 -0.0185323 0)
(-0.120062 -0.0293569 0)
(-0.109136 -0.0422348 0)
(-0.094318 -0.0574718 0)
(-0.0749716 -0.0741035 0)
(-0.0494999 -0.086249 0)
(-0.0212409 -0.0750893 0)
(-0.0111914 0.0324588 0)
(-0.0348313 0.0582567 0)
(-0.056607 0.0717256 0)
(-0.0729504 0.073704 0)
(-0.0853075 0.0679567 0)
(-0.0948477 0.0589608 0)
(-0.101821 0.0482064 0)
(-0.106639 0.0372136 0)
(-0.109506 0.0266369 0)
(-0.110943 0.016489 0)
(-0.111044 0.0068674 0)
(-0.109796 -0.00271595 0)
(-0.107191 -0.0127222 0)
(-0.102926 -0.0238756 0)
(-0.0969881 -0.0368802 0)
(-0.0889148 -0.052472 0)
(-0.0779496 -0.0710554 0)
(-0.0631187 -0.0919678 0)
(-0.042413 -0.11073 0)
(-0.0193295 -0.108736 0)
(-0.0115142 0.053578 0)
(-0.0332168 0.078272 0)
(-0.0507712 0.0878051 0)
(-0.0632841 0.0862632 0)
(-0.0724084 0.077731 0)
(-0.0789157 0.0661824 0)
(-0.0832494 0.0532596 0)
(-0.0860406 0.0404508 0)
(-0.0875452 0.0283271 0)
(-0.0879718 0.0169402 0)
(-0.0873662 0.00611122 0)
(-0.0857744 -0.00460419 0)
(-0.0832058 -0.0157132 0)
(-0.0796157 -0.0279874 0)
(-0.0749911 -0.0423174 0)
(-0.0691536 -0.0597108 0)
(-0.0614918 -0.0810166 0)
(-0.0505453 -0.106229 0)
(-0.0342813 -0.131329 0)
(-0.0170724 -0.136886 0)
(-0.00983803 0.0730879 0)
(-0.0277984 0.0955173 0)
(-0.0412679 0.101079 0)
(-0.0510145 0.0960842 0)
(-0.0576895 0.0847477 0)
(-0.0621973 0.070896 0)
(-0.0650448 0.0562548 0)
(-0.066786 0.0421611 0)
(-0.0675717 0.0290037 0)
(-0.0675218 0.0166973 0)
(-0.0666863 0.00496443 0)
(-0.065103 -0.00659947 0)
(-0.0627905 -0.0185045 0)
(-0.0597844 -0.0314911 0)
(-0.0561429 -0.0465164 0)
(-0.0518531 -0.0647743 0)
(-0.0466512 -0.0874805 0)
(-0.0390933 -0.11543 0)
(-0.0286298 -0.146585 0)
(-0.0116835 -0.159803 0)
(-0.00804065 0.0893765 0)
(-0.0209898 0.10913 0)
(-0.0310885 0.111523 0)
(-0.0383069 0.103492 0)
(-0.0430694 0.089808 0)
(-0.0462562 0.074152 0)
(-0.0482513 0.0582481 0)
(-0.0494569 0.0432126 0)
(-0.0499657 0.0292634 0)
(-0.0498694 0.0162423 0)
(-0.0491824 0.0038232 0)
(-0.0478967 -0.00841863 0)
(-0.046007 -0.0209815 0)
(-0.0435702 -0.0345166 0)
(-0.0407142 -0.0499686 0)
(-0.0375479 -0.0686707 0)
(-0.0340844 -0.0921196 0)
(-0.0288407 -0.122117 0)
(-0.0230172 -0.157343 0)
(-0.00942969 -0.178559 0)
(-0.00525435 0.101239 0)
(-0.0139814 0.119356 0)
(-0.0211381 0.119215 0)
(-0.0260636 0.108862 0)
(-0.0293071 0.0934748 0)
(-0.0315447 0.0765266 0)
(-0.0330061 0.0597216 0)
(-0.0339582 0.0439947 0)
(-0.0344443 0.0294718 0)
(-0.0345099 0.0159304 0)
(-0.0341338 0.00298575 0)
(-0.033278 -0.0098059 0)
(-0.0319183 -0.0229138 0)
(-0.0301055 -0.0368862 0)
(-0.0280054 -0.0525481 0)
(-0.0258133 -0.0712993 0)
(-0.0238323 -0.0949589 0)
(-0.0205342 -0.12623 0)
(-0.0185571 -0.164461 0)
(-0.00610759 -0.193489 0)
(-0.00317144 0.108718 0)
(-0.00744193 0.125622 0)
(-0.0117403 0.123971 0)
(-0.0145595 0.112375 0)
(-0.0165111 0.0959548 0)
(-0.0179719 0.0782242 0)
(-0.0190239 0.0608625 0)
(-0.0198183 0.0446909 0)
(-0.020348 0.0297906 0)
(-0.0206115 0.015888 0)
(-0.0205685 0.00255449 0)
(-0.0201738 -0.0106638 0)
(-0.0194016 -0.0242029 0)
(-0.0183024 -0.0385162 0)
(-0.0170557 -0.0542665 0)
(-0.0158366 -0.0728211 0)
(-0.015411 -0.0963421 0)
(-0.0135025 -0.128454 0)
(-0.0150412 -0.168815 0)
(-0.00440012 -0.205567 0)
(5.5142e-05 0.111634 0)
(-0.0012865 0.129198 0)
(-0.00296086 0.126547 0)
(-0.00375905 0.11425 0)
(-0.00450879 0.097403 0)
(-0.00520426 0.0793364 0)
(-0.0058376 0.0617305 0)
(-0.00644887 0.0453401 0)
(-0.00698448 0.0302326 0)
(-0.00740696 0.0161124 0)
(-0.00767238 0.00253197 0)
(-0.00774796 -0.0109648 0)
(-0.00762111 -0.0247823 0)
(-0.00733341 -0.039291 0)
(-0.00707416 -0.054994 0)
(-0.00688291 -0.0731456 0)
(-0.00828729 -0.0961577 0)
(-0.00741078 -0.128633 0)
(-0.0122675 -0.170566 0)
(-0.00208401 -0.21507 0)
(0.00212239 0.110148 0)
(0.00429839 0.128916 0)
(0.00554871 0.126262 0)
(0.00659569 0.114355 0)
(0.00702548 0.0976507 0)
(0.00715494 0.0797477 0)
(0.00702529 0.0622418 0)
(0.00668436 0.0458756 0)
(0.00622175 0.030741 0)
(0.00569952 0.0165619 0)
(0.0051566 0.0029035 0)
(0.00460574 -0.0106815 0)
(0.00403342 -0.0245757 0)
(0.00340767 -0.0390892 0)
(0.00252532 -0.0545781 0)
(0.00157839 -0.0721179 0)
(-0.00184269 -0.0945586 0)
(-0.00179269 -0.126812 0)
(-0.0102336 -0.170419 0)
(-0.000457414 -0.222507 0)
(0.00404255 0.105724 0)
(0.00976262 0.126232 0)
(0.0132996 0.124286 0)
(0.0163968 0.113432 0)
(0.0182632 0.0970796 0)
(0.0193804 0.0795723 0)
(0.0199249 0.0623862 0)
(0.0199988 0.0462363 0)
(0.0197228 0.0312539 0)
(0.0191774 0.0171988 0)
(0.0183935 0.00366471 0)
(0.017366 -0.009779 0)
(0.0160487 -0.0235034 0)
(0.014423 -0.0377853 0)
(0.0122925 -0.0528604 0)
(0.0098493 -0.0696074 0)
(0.00437828 -0.091196 0)
(0.00381526 -0.122859 0)
(-0.0086981 -0.168263 0)
(0.00200753 -0.227836 0)
(0.00609372 0.0967122 0)
(0.0148234 0.1197 0)
(0.0210954 0.119063 0)
(0.0258546 0.110082 0)
(0.0294057 0.0949222 0)
(0.0316906 0.0783103 0)
(0.0331001 0.0618226 0)
(0.0337772 0.0462029 0)
(0.0338414 0.0316372 0)
(0.0333793 0.0179501 0)
(0.0324097 0.00479573 0)
(0.03092 -0.00822571 0)
(0.0288199 -0.0214714 0)
(0.0261108 -0.0352226 0)
(0.0225156 -0.0496478 0)
(0.018451 -0.0655573 0)
(0.0109094 -0.0858682 0)
(0.00938366 -0.116935 0)
(-0.00749411 -0.164535 0)
(0.00482041 -0.231336 0)
(0.0078236 0.0846541 0)
(0.0192089 0.111819 0)
(0.0279348 0.113259 0)
(0.0346472 0.105632 0)
(0.0401288 0.0918829 0)
(0.0439697 0.0762901 0)
(0.0465718 0.0606499 0)
(0.0481259 0.0457587 0)
(0.0487465 0.031838 0)
(0.0485227 0.0187702 0)
(0.0474576 0.0062755 0)
(0.0455398 -0.00601535 0)
(0.0426247 -0.0184275 0)
(0.0387827 -0.0312763 0)
(0.0335415 -0.0447529 0)
(0.0277751 -0.0596094 0)
(0.0179969 -0.0784704 0)
(0.0152143 -0.109144 0)
(-0.00597612 -0.159123 0)
(0.00900867 -0.233109 0)
(0.00926793 0.0689063 0)
(0.0230224 0.0990358 0)
(0.033888 0.103295 0)
(0.0427889 0.0976787 0)
(0.050342 0.0860715 0)
(0.056109 0.0722111 0)
(0.060258 0.0579959 0)
(0.0629814 0.0443118 0)
(0.0644002 0.0314655 0)
(0.0646014 0.0194117 0)
(0.0635726 0.0079624 0)
(0.0613045 -0.0032305 0)
(0.0575697 -0.0143814 0)
(0.0526087 -0.0259 0)
(0.0455948 -0.0380382 0)
(0.0381198 -0.0516235 0)
(0.0257934 -0.0690355 0)
(0.021689 -0.0997382 0)
(-0.00388461 -0.153005 0)
(0.01412 -0.233668 0)
(0.00909921 0.0517019 0)
(0.0244414 0.0870645 0)
(0.0372521 0.0936891 0)
(0.0486142 0.0893663 0)
(0.0587943 0.0793959 0)
(0.0670854 0.0671801 0)
(0.0733516 0.0544941 0)
(0.0777187 0.0422209 0)
(0.0803012 0.030712 0)
(0.0812175 0.0199733 0)
(0.0804029 0.00989772 0)
(0.0779973 0.000160597 0)
(0.0735456 -0.00934081 0)
(0.067635 -0.019141 0)
(0.058852 -0.0295246 0)
(0.049859 -0.0415802 0)
(0.0348264 -0.0573691 0)
(0.0295988 -0.0884774 0)
(-0.000953135 -0.144646 0)
(0.0209306 -0.232364 0)
(0.00703469 0.0339 0)
(0.0232834 0.0681238 0)
(0.0382395 0.0771022 0)
(0.0524049 0.0751067 0)
(0.0654672 0.0677075 0)
(0.0766176 0.0580762 0)
(0.0853692 0.0477559 0)
(0.0917154 0.0376619 0)
(0.09572 0.0282183 0)
(0.0976223 0.0194666 0)
(0.0972211 0.0113654 0)
(0.0950252 0.00363057 0)
(0.0901364 -0.0038462 0)
(0.0838739 -0.0115137 0)
(0.0737992 -0.0195859 0)
(0.0640289 -0.0297434 0)
(0.0465895 -0.0434476 0)
(0.0407563 -0.0751519 0)
(0.00423533 -0.13458 0)
(0.030155 -0.225764 0)
(-0.004296 0.0231496 0)
(0.0137219 0.0564478 0)
(0.0317499 0.0637066 0)
(0.0498985 0.0622321 0)
(0.0668082 0.0563611 0)
(0.0814641 0.0488122 0)
(0.0932727 0.0409229 0)
(0.102249 0.0331295 0)
(0.108339 0.0258101 0)
(0.111993 0.0191308 0)
(0.112837 0.0130794 0)
(0.111846 0.0074871 0)
(0.107703 0.00228116 0)
(0.102779 -0.00303267 0)
(0.0931353 -0.00863649 0)
(0.0845462 -0.0163893 0)
(0.0659378 -0.0281321 0)
(0.0602233 -0.0594384 0)
(0.0172044 -0.119354 0)
(0.0457191 -0.204296 0)
(-0.0150489 0.0301372 0)
(-0.0040666 0.0270919 0)
(0.0211494 0.0316954 0)
(0.0453141 0.0332247 0)
(0.0670314 0.0314679 0)
(0.0858976 0.02785 0)
(0.101715 0.0236524 0)
(0.11433 0.0196461 0)
(0.123802 0.0159345 0)
(0.130543 0.0125232 0)
(0.134441 0.00947492 0)
(0.13634 0.0065365 0)
(0.1354 0.00404256 0)
(0.133242 0.000801441 0)
(0.126929 -0.00199816 0)
(0.121465 -0.00786768 0)
(0.106077 -0.0171086 0)
(0.101342 -0.0445209 0)
(0.056625 -0.0925668 0)
(0.0773974 -0.156244 0)
(0.0400302 0.0380391 0)
(0.0459123 0.0273473 0)
(0.0695465 0.0238727 0)
(0.0980812 0.0235219 0)
(0.123469 0.0227217 0)
(0.146497 0.0210124 0)
(0.16751 0.0186688 0)
(0.185656 0.0166481 0)
(0.201216 0.0144236 0)
(0.213976 0.0128558 0)
(0.224417 0.0109318 0)
(0.232546 0.00981421 0)
(0.238638 0.0080078 0)
(0.242675 0.00715198 0)
(0.244739 0.00500476 0)
(0.243173 0.00278025 0)
(0.235569 0.00204807 0)
(0.221234 -0.00932715 0)
(0.172487 -0.01284 0)
(0.145811 -0.0639885 0)
)
;

boundaryField
{
    movingWall
    {
        type            fixedValue;
        value           uniform (1 0 0);
    }
    fixedWalls
    {
        type            noSlip;
    }
    frontAndBack
    {
        type            empty;
    }
}


// ************************************************************************* //
