/*--------------------------------*- C++ -*----------------------------------*\
| =========                 |                                                 |
| \\      /  F ield         | OpenFOAM: The Open Source CFD Toolbox           |
|  \\    /   O peration     | Version:  5.0                                   |
|   \\  /    A nd           | Web:      www.OpenFOAM.org                      |
|    \\/     M anipulation  |                                                 |
\*---------------------------------------------------------------------------*/
FoamFile
{
    version     2.0;
    format      ascii;
    class       volScalarField;
    location    "0.5";
    object      Co;
}
// * * * * * * * * * * * * * * * * * * * * * * * * * * * * * * * * * * * * * //

dimensions      [0 0 0 0 0 0 0];

internalField   nonuniform List<scalar> 
400
(
0.00028501
0.000728884
0.00228552
0.00491015
0.00792239
0.0109479
0.0136645
0.0158141
0.017205
0.0177137
0.0177137
0.0172872
0.0159485
0.0138023
0.0110399
0.00793921
0.00485518
0.00219475
0.000682142
0.000313807
0.000684352
0.0043366
0.0105216
0.0179143
0.025658
0.0329724
0.0391858
0.043763
0.0463193
0.0466323
0.0465501
0.0464195
0.0440097
0.0394898
0.0332234
0.025767
0.0178517
0.0103349
0.00413616
0.00061607
0.00224367
0.0107926
0.022206
0.0346053
0.0466645
0.0573104
0.0656911
0.0711765
0.0733621
0.0720784
0.0718437
0.0734314
0.0715311
0.0662124
0.057819
0.0469838
0.0346343
0.0219721
0.0104598
0.00204906
0.00514806
0.0194578
0.0366994
0.0542652
0.0703824
0.083745
0.093417
0.098787
0.0995425
0.0956653
0.0952115
0.0995923
0.0993447
0.0943249
0.0847266
0.0711326
0.054566
0.0365235
0.0190163
0.0048355
0.00902045
0.030254
0.0539032
0.0767782
0.0967424
0.112335
0.12262
0.127093
0.125614
0.118378
0.117577
0.125653
0.128005
0.12419
0.114149
0.098306
0.0776865
0.054014
0.0298003
0.008591
0.0138194
0.0431892
0.0738696
0.102208
0.125815
0.143181
0.153472
0.156375
0.151989
0.14077
0.139383
0.151972
0.157804
0.156063
0.146334
0.128766
0.104264
0.0746754
0.0429385
0.0133147
0.0195545
0.0583325
0.0967049
0.130641
0.157633
0.176261
0.185919
0.186591
0.178687
0.162955
0.160589
0.17846
0.188656
0.189922
0.181377
0.162738
0.134621
0.0988416
0.058666
0.0190805
0.0262812
0.0758054
0.122524
0.1621
0.192067
0.211284
0.219544
0.217259
0.205233
0.184536
0.180617
0.204476
0.219956
0.225302
0.219035
0.200245
0.169013
0.126889
0.0773156
0.0260348
0.0341005
0.0957766
0.151416
0.196458
0.228703
0.247546
0.25341
0.247307
0.23053
0.204504
0.198275
0.22871
0.250413
0.26109
0.258522
0.240921
0.207496
0.159171
0.0993036
0.0343968
0.0431696
0.118471
0.183416
0.233361
0.266711
0.283766
0.285888
0.274899
0.252697
0.221087
0.211653
0.249028
0.277853
0.295291
0.298255
0.283784
0.249759
0.195931
0.125115
0.0444686
0.0537362
0.144195
0.218461
0.272095
0.304648
0.317854
0.314417
0.297218
0.268874
0.231578
0.218014
0.262315
0.298996
0.324749
0.335536
0.326918
0.29487
0.237171
0.155287
0.0566624
0.0662094
0.173376
0.256305
0.311373
0.340166
0.346602
0.33522
0.310215
0.27501
0.232153
0.213693
0.264331
0.309246
0.344839
0.366153
0.367031
0.340887
0.282413
0.190366
0.0715578
0.0812908
0.206589
0.296298
0.348917
0.369518
0.36522
0.34293
0.308346
0.265677
0.217722
0.194048
0.249645
0.302542
0.349178
0.383921
0.398856
0.384242
0.330264
0.230805
0.0900064
0.100195
0.244476
0.33683
0.380641
0.386748
0.366692
0.330167
0.284338
0.233978
0.181896
0.153488
0.2117
0.271363
0.329452
0.380218
0.414373
0.41877
0.377597
0.276655
0.113294
0.124941
0.287238
0.374013
0.39911
0.382385
0.340915
0.287118
0.229112
0.171669
0.11718
0.0856553
0.143126
0.207042
0.275534
0.34368
0.401887
0.434232
0.417953
0.326693
0.143295
0.158416
0.332758
0.398652
0.390733
0.341556
0.273784
0.201383
0.136499
0.0924822
0.0584694
0.0304064
0.0693058
0.111405
0.17617
0.260361
0.345202
0.414192
0.43854
0.376034
0.182194
0.20303
0.371087
0.38994
0.331303
0.259782
0.22787
0.224516
0.218976
0.20789
0.188473
0.167971
0.195244
0.213866
0.226311
0.236002
0.260588
0.333512
0.41504
0.410377
0.230424
0.254506
0.370143
0.318135
0.284111
0.304355
0.327435
0.347784
0.361783
0.367134
0.362174
0.351366
0.365775
0.369228
0.363043
0.349252
0.331511
0.315918
0.341798
0.393338
0.27959
0.270206
0.318666
0.34172
0.40067
0.457561
0.504563
0.540362
0.565235
0.57973
0.584156
0.581512
0.585022
0.578253
0.560799
0.531814
0.490584
0.438124
0.381913
0.344172
0.282174
0.270206
0.491556
0.627325
0.712122
0.76652
0.80192
0.825062
0.839864
0.84851
0.852134
0.852134
0.851154
0.845379
0.833905
0.814746
0.784035
0.734486
0.652673
0.514208
0.282174
)
;

boundaryField
{
    movingWall
    {
        type            zeroGradient;
    }
    fixedWalls
    {
        type            zeroGradient;
    }
    frontAndBack
    {
        type            empty;
    }
}


// ************************************************************************* //
