/*--------------------------------*- C++ -*----------------------------------*\
  =========                 |
  \\      /  F ield         | OpenFOAM: The Open Source CFD Toolbox
   \\    /   O peration     | Website:  https://openfoam.org
    \\  /    A nd           | Version:  6
     \\/     M anipulation  |
\*---------------------------------------------------------------------------*/
FoamFile
{
    version     2.0;
    format      ascii;
    class       volScalarField;
    location    "0.3";
    object      Co;
}
// * * * * * * * * * * * * * * * * * * * * * * * * * * * * * * * * * * * * * //

dimensions      [0 0 0 0 0 0 0];

internalField   nonuniform List<scalar> 
400
(
0.00028503
0.000728132
0.0022851
0.0049098
0.00792183
0.010947
0.0136634
0.0158127
0.0172035
0.0177122
0.0177122
0.0172858
0.0159473
0.0138014
0.0110393
0.00793883
0.00485497
0.00219438
0.000681094
0.000313605
0.00068372
0.00433534
0.0105209
0.0179129
0.0256561
0.0329702
0.0391835
0.0437607
0.0463172
0.0466305
0.0465482
0.0464176
0.0440079
0.0394881
0.0332219
0.0257657
0.0178508
0.0103344
0.00413474
0.000615234
0.00224357
0.0107917
0.0222047
0.0346033
0.0466617
0.0573071
0.0656874
0.0711727
0.0733584
0.0720749
0.07184
0.0734279
0.0715278
0.0662096
0.0578167
0.0469822
0.0346332
0.0219714
0.0104592
0.00204905
0.00514813
0.019456
0.0366972
0.0542623
0.0703788
0.0837407
0.0934122
0.098782
0.0995377
0.095661
0.0952066
0.0995875
0.0993404
0.0943211
0.0847237
0.0711306
0.0545646
0.0365223
0.019015
0.00483579
0.00902047
0.0302516
0.0539004
0.0767746
0.0967381
0.11233
0.122615
0.127088
0.125609
0.118374
0.117572
0.125648
0.128001
0.124186
0.114146
0.0983042
0.0776852
0.0540128
0.0297988
0.00859144
0.0138194
0.0431866
0.0738666
0.102204
0.125811
0.143177
0.153468
0.156371
0.151986
0.140767
0.139379
0.151968
0.1578
0.15606
0.146332
0.128765
0.104264
0.0746748
0.0429374
0.0133154
0.0195546
0.0583302
0.0967024
0.130639
0.15763
0.176258
0.185916
0.186589
0.178686
0.162955
0.160587
0.178457
0.188654
0.189921
0.181377
0.162739
0.134623
0.0988427
0.0586658
0.0190817
0.0262818
0.075804
0.122523
0.162099
0.192066
0.211283
0.219543
0.21726
0.205235
0.18454
0.180618
0.204476
0.219956
0.225304
0.219038
0.200249
0.169018
0.126893
0.0773174
0.0260368
0.034102
0.0957771
0.151418
0.196461
0.228706
0.247548
0.253413
0.247311
0.230536
0.204512
0.198279
0.228713
0.250416
0.261094
0.258528
0.240929
0.207506
0.159179
0.0993083
0.0344005
0.0431725
0.118474
0.183421
0.233367
0.266717
0.283771
0.285894
0.274906
0.252706
0.221098
0.211659
0.249033
0.277859
0.295298
0.298265
0.283797
0.249775
0.195945
0.125125
0.0444748
0.0537412
0.144202
0.218472
0.272106
0.304657
0.317863
0.314426
0.297228
0.268886
0.231593
0.218021
0.262321
0.299003
0.324759
0.335549
0.326934
0.294892
0.237193
0.155303
0.0566719
0.0662171
0.173388
0.256323
0.311389
0.340179
0.346614
0.33523
0.310226
0.275023
0.232169
0.2137
0.264337
0.309253
0.344849
0.366168
0.36705
0.340914
0.282442
0.19039
0.0715715
0.0813008
0.206608
0.296321
0.348936
0.369533
0.365233
0.34294
0.308357
0.265689
0.217737
0.194054
0.249649
0.302546
0.349184
0.383933
0.398875
0.384271
0.330301
0.230838
0.0900238
0.100203
0.244501
0.336858
0.380663
0.386763
0.366702
0.330174
0.284345
0.233987
0.181907
0.15349
0.211699
0.271361
0.329452
0.380224
0.414387
0.418798
0.377638
0.276695
0.11331
0.124935
0.287265
0.374044
0.399128
0.382394
0.340916
0.287118
0.229113
0.171672
0.117186
0.0856525
0.143119
0.207032
0.275524
0.343674
0.40189
0.43425
0.41799
0.326731
0.143293
0.158361
0.332777
0.398681
0.39074
0.341552
0.273775
0.201375
0.136494
0.0924818
0.0584734
0.0304048
0.069302
0.111393
0.17615
0.260341
0.345188
0.414189
0.438563
0.376053
0.18213
0.202818
0.371076
0.389969
0.331297
0.259777
0.227875
0.22452
0.21898
0.207897
0.188483
0.167978
0.19525
0.213872
0.226321
0.23602
0.260586
0.333491
0.415047
0.41034
0.230172
0.253738
0.370177
0.318244
0.284151
0.304375
0.327452
0.347799
0.361796
0.367148
0.362191
0.351381
0.36579
0.369244
0.363064
0.349282
0.331555
0.316002
0.341922
0.393335
0.278726
0.270519
0.319256
0.341703
0.400674
0.457569
0.50458
0.540382
0.565255
0.579749
0.584176
0.58153
0.58504
0.578274
0.560822
0.531838
0.490604
0.438149
0.381898
0.344782
0.282495
0.270518
0.491592
0.627357
0.712146
0.766532
0.801924
0.825064
0.839864
0.84851
0.852134
0.852134
0.851156
0.845382
0.833908
0.81475
0.784042
0.734496
0.652667
0.514195
0.282494
)
;

boundaryField
{
    movingWall
    {
        type            zeroGradient;
    }
    fixedWalls
    {
        type            zeroGradient;
    }
    frontAndBack
    {
        type            empty;
    }
}


// ************************************************************************* //
