/*--------------------------------*- C++ -*----------------------------------*\
| =========                 |                                                 |
| \\      /  F ield         | OpenFOAM: The Open Source CFD Toolbox           |
|  \\    /   O peration     | Version:  5.0                                   |
|   \\  /    A nd           | Web:      www.OpenFOAM.org                      |
|    \\/     M anipulation  |                                                 |
\*---------------------------------------------------------------------------*/
FoamFile
{
    version     2.0;
    format      ascii;
    class       volScalarField;
    location    "1.5";
    object      p;
}
// * * * * * * * * * * * * * * * * * * * * * * * * * * * * * * * * * * * * * //

dimensions      [0 2 -2 0 0 0 0];

internalField   nonuniform List<scalar> 
400
(
-7.81538e-09
2.25355e-06
9.96307e-06
2.28838e-05
4.12874e-05
6.58364e-05
9.75643e-05
0.000138147
0.000190345
0.000258773
0.000351254
0.000481664
0.000677969
0.000996846
0.00156689
0.00249108
0.00374425
0.00500789
0.00594345
0.0064213
-3.94836e-06
-1.59813e-06
5.70024e-06
1.7869e-05
3.4966e-05
5.72354e-05
8.49214e-05
0.000118315
0.00015794
0.000205131
0.000262811
0.000337635
0.000453092
0.000685875
0.00119488
0.00211843
0.00338868
0.00472194
0.00580039
0.00645274
-2.92581e-05
-2.72208e-05
-2.16208e-05
-1.24364e-05
1.74244e-08
1.52582e-05
3.22591e-05
4.91668e-05
6.30444e-05
7.00221e-05
6.49992e-05
4.02798e-05
-2.05351e-06
1.0621e-05
0.000293613
0.00105129
0.00230386
0.00380412
0.00528896
0.00630564
-7.55841e-05
-7.49554e-05
-7.27756e-05
-6.91786e-05
-6.51145e-05
-6.21384e-05
-6.29989e-05
-7.23265e-05
-9.75329e-05
-0.000149354
-0.000243822
-0.000412949
-0.000713256
-0.00115831
-0.00150668
-0.00118861
-4.87454e-05
0.0016659
0.00368223
0.00497928
-0.00014055
-0.000142077
-0.000144698
-0.00014878
-0.000156058
-0.000169386
-0.00019355
-0.00023645
-0.000311045
-0.000437618
-0.000648478
-0.00101186
-0.00168323
-0.00279705
-0.00406345
-0.00447961
-0.00353286
-0.00160604
0.000527778
0.00215436
-0.000219806
-0.000223807
-0.000231931
-0.000244772
-0.00026487
-0.000296443
-0.000346431
-0.000426222
-0.000554885
-0.000764433
-0.00110954
-0.00169552
-0.00272704
-0.00447194
-0.00667847
-0.00780065
-0.0070314
-0.004992
-0.00322228
-0.00117274
-0.000308102
-0.000314666
-0.000328206
-0.000349658
-0.000382256
-0.000431414
-0.000505952
-0.000620257
-0.000798362
-0.00108127
-0.00154113
-0.00232272
-0.00361822
-0.00573084
-0.00838869
-0.00976035
-0.00926368
-0.00730735
-0.00573347
-0.00390414
-0.000400231
-0.000409093
-0.0004272
-0.000455856
-0.000498761
-0.000562057
-0.000655601
-0.000795264
-0.00100713
-0.00133529
-0.00185446
-0.0027027
-0.00409861
-0.00618624
-0.00890107
-0.0103192
-0.00999809
-0.00806444
-0.00686751
-0.00543278
-0.000491676
-0.0005021
-0.000523221
-0.000556625
-0.000606131
-0.000677945
-0.000781754
-0.000932765
-0.00115526
-0.00148967
-0.00200462
-0.00280485
-0.00408141
-0.00591153
-0.00820871
-0.00950795
-0.00932036
-0.00759819
-0.0067521
-0.0056803
-0.000578856
-0.000589763
-0.000611827
-0.000646855
-0.000698434
-0.000772157
-0.000876486
-0.0010241
-0.00123361
-0.00153672
-0.00198954
-0.00265712
-0.00368002
-0.00502212
-0.00659394
-0.00756619
-0.00750376
-0.00620939
-0.00577196
-0.00475709
-0.000659599
-0.000669692
-0.000690271
-0.000723513
-0.000772558
-0.000841916
-0.000938123
-0.00107129
-0.00125212
-0.00150886
-0.00186854
-0.00235781
-0.00304283
-0.00384171
-0.00471265
-0.00516982
-0.00513632
-0.00432772
-0.00415833
-0.00341538
-0.000732977
-0.000740691
-0.000757343
-0.000785527
-0.000828249
-0.000888244
-0.000968933
-0.00108098
-0.00123058
-0.00142866
-0.00168799
-0.0020074
-0.00240457
-0.00280363
-0.00320939
-0.00334211
-0.00319206
-0.00259286
-0.00282326
-0.00223043
-0.000799983
-0.000803349
-0.000813375
-0.000833842
-0.00086698
-0.000916065
-0.000975271
-0.00106555
-0.00118042
-0.00132377
-0.00149741
-0.00168915
-0.00190004
-0.00206888
-0.00219681
-0.00215252
-0.0019697
-0.00146135
-0.00201266
-0.0013119
-0.000862137
-0.000858964
-0.00085971
-0.000869127
-0.00088945
-0.000922675
-0.000969575
-0.00103486
-0.00111744
-0.00121586
-0.00132695
-0.00143604
-0.001542
-0.00159293
-0.00157601
-0.00145702
-0.00128578
-0.00075877
-0.00149798
-0.000456881
-0.000924184
-0.000910051
-0.000897759
-0.00089285
-0.00089962
-0.000918717
-0.000950495
-0.000995574
-0.00105244
-0.00111801
-0.0011881
-0.00124833
-0.00130018
-0.0013016
-0.00123589
-0.00111448
-0.001002
-0.000329711
-0.00131846
0.000266483
-0.000994215
-0.000960962
-0.000928607
-0.00090803
-0.000900961
-0.000906456
-0.000924116
-0.000953286
-0.000991591
-0.00103536
-0.00108089
-0.001115
-0.00114102
-0.00112616
-0.00105134
-0.000934135
-0.000903526
-0.000156547
-0.00135245
0.000939163
-0.00108986
-0.00101541
-0.000955923
-0.000915661
-0.000893505
-0.000887576
-0.000894156
-0.000912142
-0.000938069
-0.000968931
-0.00100075
-0.00102287
-0.00103814
-0.00102329
-0.000972819
-0.000901368
-0.000947049
-0.000273214
-0.00129917
0.00183223
-0.00125188
-0.00107408
-0.000983069
-0.000925112
-0.000889428
-0.000872862
-0.00086907
-0.000879753
-0.000898047
-0.00092272
-0.000948041
-0.000966369
-0.00097779
-0.000963241
-0.000916967
-0.000823281
-0.000792276
-0.000242609
-0.000800666
0.00406601
-0.00164627
-0.0012405
-0.00107767
-0.000966264
-0.000905682
-0.000884798
-0.000871385
-0.000879763
-0.000889777
-0.000913474
-0.000932204
-0.000952039
-0.000957878
-0.000959585
-0.000943853
-0.000966646
-0.00109202
-0.000555665
0.00198069
0.0133266
-0.00270226
-0.00075146
-0.000605802
-0.000671092
-0.000688955
-0.000682648
-0.000691177
-0.0007099
-0.000744616
-0.000775696
-0.000817573
-0.000847855
-0.000885949
-0.000897547
-0.000871658
-0.000650359
0.00015151
0.00343346
0.0141165
0.0352005
)
;

boundaryField
{
    movingWall
    {
        type            zeroGradient;
    }
    fixedWalls
    {
        type            zeroGradient;
    }
    frontAndBack
    {
        type            empty;
    }
}


// ************************************************************************* //
