/*--------------------------------*- C++ -*----------------------------------*\
| =========                 |                                                 |
| \\      /  F ield         | OpenFOAM: The Open Source CFD Toolbox           |
|  \\    /   O peration     | Version:  5.0                                   |
|   \\  /    A nd           | Web:      www.OpenFOAM.org                      |
|    \\/     M anipulation  |                                                 |
\*---------------------------------------------------------------------------*/
FoamFile
{
    version     2.0;
    format      ascii;
    class       surfaceScalarField;
    location    "1.5";
    object      phi;
}
// * * * * * * * * * * * * * * * * * * * * * * * * * * * * * * * * * * * * * //

dimensions      [0 3 -1 0 0 0 0];

internalField   nonuniform List<scalar> 
760
(
-6.7991e-08
6.79918e-08
-1.58133e-07
9.01422e-08
-2.5505e-07
9.69165e-08
-3.60002e-07
1.04953e-07
-4.7643e-07
1.16428e-07
-6.08638e-07
1.32208e-07
-7.62114e-07
1.53477e-07
-9.43788e-07
1.81674e-07
-1.16194e-06
2.18149e-07
-1.42509e-06
2.63154e-07
-1.739e-06
3.13913e-07
-2.09986e-06
3.60854e-07
-2.47983e-06
3.79974e-07
-2.8079e-06
3.28069e-07
-2.97964e-06
1.71742e-07
-2.87691e-06
-1.02735e-07
-2.3749e-06
-5.02007e-07
-1.57188e-06
-8.03018e-07
-7.05373e-07
-8.66509e-07
-7.05373e-07
-1.05068e-07
1.7306e-07
-2.46818e-07
2.31893e-07
-3.97387e-07
2.47485e-07
-5.58075e-07
2.65641e-07
-7.33248e-07
2.916e-07
-9.27867e-07
3.26827e-07
-1.14757e-06
3.73179e-07
-1.39851e-06
4.32613e-07
-1.68667e-06
5.06309e-07
-2.01622e-06
5.92705e-07
-2.38664e-06
6.84331e-07
-2.78872e-06
7.62938e-07
-3.19881e-06
7.9006e-07
-3.56573e-06
6.94994e-07
-3.78031e-06
3.86322e-07
-3.67235e-06
-2.10695e-07
-3.10161e-06
-1.07275e-06
-2.15969e-06
-1.74494e-06
-1.04987e-06
-1.97633e-06
-1.75524e-06
-1.11567e-07
2.84627e-07
-2.61278e-07
3.81603e-07
-4.20144e-07
4.06351e-07
-5.89135e-07
4.34633e-07
-7.72368e-07
4.74833e-07
-9.74584e-07
5.29043e-07
-1.20115e-06
5.99745e-07
-1.458e-06
6.89467e-07
-1.75145e-06
7.99755e-07
-2.08767e-06
9.28921e-07
-2.47228e-06
1.06894e-06
-2.91231e-06
1.20297e-06
-3.41732e-06
1.29508e-06
-3.97275e-06
1.25042e-06
-4.44691e-06
8.60484e-07
-4.53114e-06
-1.2646e-07
-3.98973e-06
-1.61416e-06
-2.98609e-06
-2.74858e-06
-1.60739e-06
-3.35502e-06
-3.36264e-06
-1.06724e-07
3.91351e-07
-2.5057e-07
5.25449e-07
-4.03136e-07
5.58917e-07
-5.64784e-07
5.9628e-07
-7.39195e-07
6.49244e-07
-9.3084e-07
7.20689e-07
-1.14514e-06
8.14049e-07
-1.3889e-06
9.33223e-07
-1.67111e-06
1.08197e-06
-2.00464e-06
1.26245e-06
-2.40898e-06
1.47328e-06
-2.91583e-06
1.70981e-06
-3.56989e-06
1.94914e-06
-4.35439e-06
2.03491e-06
-5.02588e-06
1.53198e-06
-5.03448e-06
-1.1786e-07
-4.4514e-06
-2.19724e-06
-3.51193e-06
-3.68805e-06
-1.97428e-06
-4.89268e-06
-5.33691e-06
-9.67345e-08
4.88086e-07
-2.28848e-07
6.57563e-07
-3.68917e-07
6.98987e-07
-5.16295e-07
7.43658e-07
-6.74018e-07
8.06967e-07
-8.46082e-07
8.92753e-07
-1.03778e-06
1.00575e-06
-1.2566e-06
1.15204e-06
-1.51406e-06
1.33943e-06
-1.8297e-06
1.57809e-06
-2.23696e-06
1.88055e-06
-2.77967e-06
2.25252e-06
-3.46802e-06
2.63749e-06
-4.19403e-06
2.76092e-06
-4.65366e-06
1.99161e-06
-4.51078e-06
-2.60745e-07
-3.89324e-06
-2.81479e-06
-3.04541e-06
-4.53587e-06
-1.83513e-06
-6.10296e-06
-7.17205e-06
-8.41119e-08
5.72198e-07
-2.01052e-07
7.74503e-07
-3.25191e-07
8.23125e-07
-4.54227e-07
8.72695e-07
-5.90234e-07
9.42974e-07
-7.36273e-07
1.03879e-06
-8.96685e-07
1.16616e-06
-1.07805e-06
1.33341e-06
-1.29099e-06
1.55237e-06
-1.55362e-06
1.84072e-06
-1.89544e-06
2.22237e-06
-2.35139e-06
2.70846e-06
-2.8875e-06
3.1736e-06
-3.36046e-06
3.23388e-06
-3.49389e-06
2.12504e-06
-3.26499e-06
-4.8964e-07
-2.85038e-06
-3.2294e-06
-2.27894e-06
-5.1073e-06
-1.41903e-06
-6.96288e-06
-8.59107e-06
-6.98597e-08
6.42057e-07
-1.6983e-07
8.74473e-07
-2.75986e-07
9.29281e-07
-3.84057e-07
9.80766e-07
-4.94808e-07
1.05372e-06
-6.09761e-07
1.15375e-06
-7.31129e-07
1.28753e-06
-8.62302e-07
1.46458e-06
-1.00867e-06
1.69873e-06
-1.17876e-06
2.01081e-06
-1.38445e-06
2.42805e-06
-1.6482e-06
2.97222e-06
-1.89121e-06
3.41661e-06
-2.01783e-06
3.36051e-06
-2.02343e-06
2.13064e-06
-1.89452e-06
-6.1855e-07
-1.67824e-06
-3.44568e-06
-1.32924e-06
-5.4563e-06
-1.03265e-06
-7.25946e-06
-9.62373e-06
-5.49413e-08
6.96999e-07
-1.37689e-07
9.57221e-07
-2.24813e-07
1.01641e-06
-3.10586e-07
1.06654e-06
-3.94219e-07
1.13736e-06
-4.75318e-07
1.23484e-06
-5.53269e-07
1.36548e-06
-6.26966e-07
1.53828e-06
-6.9416e-07
1.76593e-06
-7.50197e-07
2.06685e-06
-7.88227e-07
2.46608e-06
-7.91758e-07
2.97575e-06
-7.39854e-07
3.3647e-06
-6.16481e-07
3.23713e-06
-5.5321e-07
2.06737e-06
-5.95995e-07
-5.75765e-07
-5.4349e-07
-3.49819e-06
-4.5568e-07
-5.54411e-06
-5.45674e-07
-7.16947e-06
-1.01694e-05
-4.06685e-08
7.37667e-07
-1.06849e-07
1.0234e-06
-1.75184e-07
1.08474e-06
-2.38766e-07
1.13012e-06
-2.95312e-07
1.1939e-06
-3.42549e-07
1.28208e-06
-3.77091e-07
1.40002e-06
-3.93472e-07
1.55466e-06
-3.82799e-07
1.75526e-06
-3.29029e-07
2.01308e-06
-2.0204e-07
2.33909e-06
2.82012e-08
2.74551e-06
3.22053e-07
3.07085e-06
6.65779e-07
2.89341e-06
8.80351e-07
1.8528e-06
6.36101e-07
-3.31515e-07
3.72915e-07
-3.235e-06
4.99714e-08
-5.22117e-06
-2.45202e-07
-6.87429e-06
-1.04146e-05
-2.84278e-08
7.66095e-07
-7.96344e-08
1.07461e-06
-1.30608e-07
1.13571e-06
-1.73615e-07
1.17313e-06
-2.05211e-07
1.2255e-06
-2.21785e-07
1.29866e-06
-2.18143e-07
1.39638e-06
-1.86004e-07
1.52252e-06
-1.12258e-07
1.68151e-06
2.51061e-08
1.87572e-06
2.47898e-07
2.1163e-06
6.0507e-07
2.38834e-06
1.05991e-06
2.61601e-06
1.58365e-06
2.36967e-06
1.9284e-06
1.50805e-06
1.74236e-06
-1.45478e-07
1.20368e-06
-2.69632e-06
6.22634e-07
-4.64013e-06
-8.98454e-09
-6.24267e-06
-1.04236e-05
-1.93303e-08
7.85425e-07
-5.83877e-08
1.11367e-06
-9.46492e-08
1.17198e-06
-1.19821e-07
1.1983e-06
-1.29992e-07
1.23567e-06
-1.2113e-07
1.28979e-06
-8.76356e-08
1.36289e-06
-2.03364e-08
1.45522e-06
9.16396e-08
1.56953e-06
2.61878e-07
1.70548e-06
5.25178e-07
1.853e-06
9.16971e-07
1.99654e-06
1.41173e-06
2.12125e-06
1.90207e-06
1.87933e-06
2.25139e-06
1.15873e-06
2.24173e-06
-1.35822e-07
1.63139e-06
-2.08598e-06
9.08765e-07
-3.9175e-06
1.30808e-07
-5.46472e-06
-1.02928e-05
-1.5614e-08
8.01039e-07
-4.60362e-08
1.14409e-06
-7.04381e-08
1.19638e-06
-8.10379e-08
1.2089e-06
-7.40419e-08
1.22867e-06
-4.56379e-08
1.26139e-06
9.93719e-09
1.30731e-06
9.64795e-08
1.36868e-06
2.24557e-07
1.44146e-06
4.08866e-07
1.52117e-06
6.66313e-07
1.59555e-06
1.01792e-06
1.64493e-06
1.46011e-06
1.67906e-06
1.86287e-06
1.47657e-06
2.11867e-06
9.02931e-07
2.12965e-06
-1.46796e-07
1.51006e-06
-1.46639e-06
7.02805e-07
-3.11025e-06
6.48078e-08
-4.82672e-06
-1.0228e-05
-1.63367e-08
8.17376e-07
-4.33008e-08
1.17105e-06
-6.04129e-08
1.21349e-06
-5.99559e-08
1.20844e-06
-3.9736e-08
1.20845e-06
2.84396e-09
1.21881e-06
7.01863e-08
1.23997e-06
1.67628e-07
1.27123e-06
3.0131e-07
1.30777e-06
4.78996e-07
1.34348e-06
7.0742e-07
1.36713e-06
9.91866e-07
1.36049e-06
1.34813e-06
1.32279e-06
1.65925e-06
1.16546e-06
1.8123e-06
7.49877e-07
1.77537e-06
-1.09872e-07
1.24466e-06
-9.35679e-07
4.20011e-07
-2.2856e-06
-1.66495e-08
-4.39006e-06
-1.02446e-05
-3.08255e-08
8.48201e-07
-5.88072e-08
1.19903e-06
-7.09692e-08
1.22565e-06
-6.15398e-08
1.19901e-06
-2.90074e-08
1.17592e-06
2.4995e-08
1.16481e-06
1.01538e-07
1.16343e-06
2.04384e-07
1.16839e-06
3.35505e-07
1.17665e-06
4.98064e-07
1.18092e-06
6.92188e-07
1.17301e-06
9.13431e-07
1.13925e-06
1.17951e-06
1.05671e-06
1.39998e-06
9.44988e-07
1.47952e-06
6.70343e-07
1.37721e-06
-7.55812e-09
9.86439e-07
-5.44912e-07
2.73548e-07
-1.5727e-06
-5.08495e-08
-4.06566e-06
-1.02955e-05
-4.88877e-08
8.97089e-07
-8.76927e-08
1.23784e-06
-9.78145e-08
1.23577e-06
-8.16275e-08
1.18283e-06
-4.25323e-08
1.13682e-06
1.99542e-08
1.10232e-06
1.03077e-07
1.0803e-06
2.06866e-07
1.0646e-06
3.32329e-07
1.05119e-06
4.78605e-07
1.03465e-06
6.42671e-07
1.00894e-06
8.16375e-07
9.65542e-07
1.0054e-06
8.67684e-07
1.15532e-06
7.95063e-07
1.20639e-06
6.19276e-07
1.06217e-06
1.3666e-07
7.59287e-07
-2.42027e-07
1.57813e-07
-9.71231e-07
1.85228e-08
-3.92637e-06
-1.02769e-05
-1.02658e-07
9.99747e-07
-1.49372e-07
1.28455e-06
-1.53243e-07
1.23964e-06
-1.24349e-07
1.15393e-06
-7.12326e-08
1.08371e-06
2.06464e-09
1.02902e-06
9.34084e-08
9.88961e-07
1.9979e-07
9.58218e-07
3.20429e-07
9.30551e-07
4.52896e-07
9.02179e-07
5.93133e-07
8.68704e-07
7.33477e-07
8.25197e-07
8.61431e-07
7.3973e-07
9.60026e-07
6.96468e-07
9.82163e-07
5.9714e-07
8.51364e-07
2.67458e-07
6.2437e-07
-1.50329e-08
1.13459e-07
-4.6032e-07
1.06929e-07
-3.91984e-06
-1.017e-05
-1.68718e-07
1.16847e-06
-2.39473e-07
1.35531e-06
-2.28757e-07
1.22893e-06
-1.8981e-07
1.11499e-06
-1.3112e-07
1.02502e-06
-5.34e-08
9.51304e-07
4.43211e-08
8.9124e-07
1.53221e-07
8.49319e-07
2.73694e-07
8.10078e-07
3.97943e-07
7.7793e-07
5.25737e-07
7.4091e-07
6.46664e-07
7.0427e-07
7.40564e-07
6.45831e-07
8.34915e-07
6.02117e-07
8.8902e-07
5.43034e-07
7.94362e-07
3.62116e-07
5.68196e-07
2.11134e-07
3.02734e-07
-1.94859e-07
3.9998e-07
-4.01709e-06
-9.77004e-06
-4.33921e-07
1.60239e-06
-4.70384e-07
1.39177e-06
-3.95649e-07
1.15419e-06
-3.05611e-07
1.02495e-06
-2.01926e-07
9.21333e-07
-9.87015e-08
8.4808e-07
1.64507e-08
7.76088e-07
1.35131e-07
7.30638e-07
2.62929e-07
6.8228e-07
3.87979e-07
6.5288e-07
5.17151e-07
6.11738e-07
6.35391e-07
5.8603e-07
7.31428e-07
5.49794e-07
8.10878e-07
5.22667e-07
8.08596e-07
5.45316e-07
6.81436e-07
4.89277e-07
5.73794e-07
3.18775e-07
7.66359e-07
-3.87424e-07
9.27286e-07
-4.17801e-06
-8.84275e-06
-6.35287e-07
2.23767e-06
-4.97241e-07
1.25372e-06
-2.82299e-07
9.3925e-07
-9.90127e-08
8.41661e-07
8.38704e-08
7.3845e-07
2.50284e-07
6.81666e-07
4.35506e-07
5.90866e-07
5.98862e-07
5.67282e-07
7.84595e-07
4.96547e-07
9.39154e-07
4.98321e-07
1.11825e-06
4.32644e-07
1.25238e-06
4.51902e-07
1.40587e-06
3.96301e-07
1.50418e-06
4.24357e-07
1.66942e-06
3.80076e-07
1.81232e-06
3.46372e-07
2.06932e-06
6.17755e-08
2.52679e-06
-8.44888e-07
2.06832e-06
-3.71954e-06
-6.77444e-06
2.23767e-06
3.4914e-06
4.43065e-06
5.27231e-06
6.01076e-06
6.69243e-06
7.28329e-06
7.85057e-06
8.34712e-06
8.84544e-06
9.27809e-06
9.72999e-06
1.01263e-05
1.05506e-05
1.09307e-05
1.12771e-05
1.13389e-05
1.0494e-05
6.77444e-06
)
;

boundaryField
{
    movingWall
    {
        type            calculated;
        value           uniform 0;
    }
    fixedWalls
    {
        type            calculated;
        value           uniform 0;
    }
    frontAndBack
    {
        type            empty;
        value           nonuniform 0();
    }
}


// ************************************************************************* //
