/*--------------------------------*- C++ -*----------------------------------*\
| =========                 |                                                 |
| \\      /  F ield         | OpenFOAM: The Open Source CFD Toolbox           |
|  \\    /   O peration     | Version:  5.0                                   |
|   \\  /    A nd           | Web:      www.OpenFOAM.org                      |
|    \\/     M anipulation  |                                                 |
\*---------------------------------------------------------------------------*/
FoamFile
{
    version     2.0;
    format      ascii;
    class       volVectorField;
    location    "1.5";
    object      U;
}
// * * * * * * * * * * * * * * * * * * * * * * * * * * * * * * * * * * * * * //

dimensions      [0 1 -1 0 0 0 0];

internalField   nonuniform List<vector> 
400
(
(-0.000548437 0.000510329 0)
(-0.00222653 0.000601164 0)
(-0.00410872 0.000648203 0)
(-0.00612204 0.000713772 0)
(-0.00832449 0.00080772 0)
(-0.0107968 0.000939197 0)
(-0.0136363 0.00112219 0)
(-0.016968 0.00137586 0)
(-0.0209495 0.00172396 0)
(-0.0257628 0.00218779 0)
(-0.0315728 0.00276678 0)
(-0.0384527 0.00339318 0)
(-0.0462409 0.00385503 0)
(-0.0541599 0.00369849 0)
(-0.058684 0.00249802 0)
(-0.059789 0.000455719 0)
(-0.0526513 -0.00356038 0)
(-0.0391688 -0.00628141 0)
(-0.0225989 -0.00695032 0)
(-0.00616171 -0.0058614 0)
(-0.000780445 0.00234295 0)
(-0.00348311 0.00315965 0)
(-0.00641003 0.00339164 0)
(-0.00951356 0.00365901 0)
(-0.0128559 0.00403995 0)
(-0.0165363 0.00455962 0)
(-0.0206611 0.00525017 0)
(-0.0253528 0.00614704 0)
(-0.030742 0.00727484 0)
(-0.0369452 0.00861359 0)
(-0.0440258 0.0100405 0)
(-0.0519714 0.0112392 0)
(-0.060573 0.0115612 0)
(-0.068894 0.00990318 0)
(-0.0747461 0.00498847 0)
(-0.0754264 -0.00380314 0)
(-0.0681144 -0.0148157 0)
(-0.0524087 -0.0238814 0)
(-0.032904 -0.0263149 0)
(-0.0081127 -0.0214271 0)
(-0.000814307 0.00456503 0)
(-0.00369727 0.00612157 0)
(-0.00677875 0.00652444 0)
(-0.0100479 0.00698971 0)
(-0.0135516 0.00765248 0)
(-0.0173858 0.00854751 0)
(-0.0216512 0.00971701 0)
(-0.0264644 0.0112033 0)
(-0.0319547 0.0130287 0)
(-0.0382513 0.0151519 0)
(-0.0454792 0.017403 0)
(-0.053847 0.0194024 0)
(-0.0637266 0.0203882 0)
(-0.0750535 0.01882 0)
(-0.0857931 0.011963 0)
(-0.0915611 -0.00322476 0)
(-0.086487 -0.0250403 0)
(-0.0694283 -0.0419996 0)
(-0.0477156 -0.0486357 0)
(-0.0131293 -0.0441973 0)
(-0.000764601 0.00676207 0)
(-0.00354442 0.00907041 0)
(-0.00650072 0.00965096 0)
(-0.00963315 0.010308 0)
(-0.0129731 0.0112404 0)
(-0.0166088 0.0124962 0)
(-0.0206366 0.0141325 0)
(-0.0251782 0.0162089 0)
(-0.0303921 0.0187699 0)
(-0.036482 0.0218048 0)
(-0.043719 0.0251969 0)
(-0.052659 0.0287067 0)
(-0.0645532 0.0317618 0)
(-0.0806205 0.0320136 0)
(-0.0978879 0.0231837 0)
(-0.10459 -0.00163272 0)
(-0.094318 -0.0376379 0)
(-0.0796818 -0.0644089 0)
(-0.0543395 -0.0795312 0)
(-0.0202372 -0.0845017 0)
(-0.000672493 0.0088015 0)
(-0.0032287 0.0118389 0)
(-0.0059422 0.012586 0)
(-0.00880647 0.0134079 0)
(-0.0118346 0.0145725 0)
(-0.0151022 0.0161455 0)
(-0.0186962 0.0182064 0)
(-0.0227376 0.0208502 0)
(-0.0274075 0.0241827 0)
(-0.0329796 0.0283069 0)
(-0.0398345 0.0333097 0)
(-0.0487125 0.039231 0)
(-0.0615056 0.0453785 0)
(-0.0794275 0.0473643 0)
(-0.0950498 0.0347586 0)
(-0.09678 -0.00435131 0)
(-0.081265 -0.0553655 0)
(-0.0684732 -0.0882898 0)
(-0.046604 -0.117189 0)
(-0.0217886 -0.131447 0)
(-0.00056249 0.0106119 0)
(-0.00282345 0.0143378 0)
(-0.00522997 0.0152335 0)
(-0.00775093 0.0161784 0)
(-0.0103769 0.0175181 0)
(-0.013163 0.019338 0)
(-0.0161744 0.0217449 0)
(-0.0195073 0.0248808 0)
(-0.0233158 0.0289399 0)
(-0.0278488 0.0341978 0)
(-0.0334264 0.0410205 0)
(-0.040582 0.0495474 0)
(-0.0509132 0.0578721 0)
(-0.0654617 0.0591755 0)
(-0.0772424 0.0394024 0)
(-0.0708016 -0.00834224 0)
(-0.0573069 -0.0655119 0)
(-0.047629 -0.102762 0)
(-0.0425919 -0.138339 0)
(-0.00667153 -0.164342 0)
(-0.000446204 0.0121599 0)
(-0.00236188 0.0165068 0)
(-0.00443224 0.017541 0)
(-0.006563 0.0185554 0)
(-0.0087275 0.0199939 0)
(-0.0109501 0.0219602 0)
(-0.0132596 0.024582 0)
(-0.0156978 0.0280381 0)
(-0.0183317 0.032587 0)
(-0.0212709 0.0386148 0)
(-0.0246183 0.0466066 0)
(-0.0287746 0.0567203 0)
(-0.0343296 0.0662259 0)
(-0.0414774 0.0656894 0)
(-0.047138 0.0414771 0)
(-0.0401453 -0.0115977 0)
(-0.0341563 -0.068759 0)
(-0.0249886 -0.109784 0)
(-0.0314928 -0.147505 0)
(-0.00353995 -0.18734 0)
(-0.000320833 0.0134115 0)
(-0.00188714 0.0183376 0)
(-0.0036071 0.0194791 0)
(-0.00532671 0.0205003 0)
(-0.00700122 0.0219466 0)
(-0.00861992 0.0239342 0)
(-0.0101674 0.0265974 0)
(-0.0116184 0.030126 0)
(-0.0129293 0.0347972 0)
(-0.01403 0.0410264 0)
(-0.0147205 0.0493952 0)
(-0.0150832 0.0605528 0)
(-0.0150054 0.0683482 0)
(-0.0140848 0.0667904 0)
(-0.0155793 0.041874 0)
(-0.00946757 -0.0124482 0)
(-0.0150272 -0.0699957 0)
(-0.00149071 -0.11086 0)
(-0.019829 -0.145622 0)
(0.00209702 -0.200625 0)
(-0.000198711 0.0143685 0)
(-0.00143577 0.0198293 0)
(-0.0028126 0.0210377 0)
(-0.00412731 0.0219998 0)
(-0.00531647 0.0233566 0)
(-0.0063371 0.025229 0)
(-0.00713244 0.0277385 0)
(-0.00761572 0.0310502 0)
(-0.00764666 0.0353921 0)
(-0.00700146 0.0410861 0)
(-0.00532087 0.0485182 0)
(-0.00167543 0.058 0)
(0.00284136 0.0656769 0)
(0.0100394 0.0631135 0)
(0.0128009 0.0413143 0)
(0.0196618 -0.00942613 0)
(0.00483812 -0.0675609 0)
(0.0141144 -0.106147 0)
(-0.0130401 -0.13903 0)
(0.00559315 -0.20617 0)
(-9.60689e-05 0.0150607 0)
(-0.00104487 0.02101 0)
(-0.0021069 0.0222373 0)
(-0.00304886 0.0230709 0)
(-0.00379174 0.0242435 0)
(-0.0042696 0.0258751 0)
(-0.00439942 0.0280593 0)
(-0.0040559 0.0309075 0)
(-0.00304816 0.0345703 0)
(-0.00110537 0.0392013 0)
(0.00221128 0.0450544 0)
(0.00833416 0.0521195 0)
(0.0156875 0.0584143 0)
(0.0268177 0.0545346 0)
(0.0321286 0.0366479 0)
(0.0408461 -0.00227265 0)
(0.026378 -0.0565303 0)
(0.0285331 -0.0970421 0)
(-0.00755922 -0.129891 0)
(0.00797242 -0.207668 0)
(-2.33992e-05 0.0155326 0)
(-0.000746495 0.0219042 0)
(-0.00154976 0.023105 0)
(-0.00217249 0.0237549 0)
(-0.00252961 0.0246683 0)
(-0.00255122 0.0259582 0)
(-0.00214719 0.0276899 0)
(-0.00118686 0.0299141 0)
(0.000508411 0.032704 0)
(0.00329835 0.0360836 0)
(0.00747015 0.0400902 0)
(0.0142839 0.044438 0)
(0.0221063 0.048515 0)
(0.0342023 0.0438939 0)
(0.0380372 0.0279936 0)
(0.0501433 -0.00213311 0)
(0.0353222 -0.0449375 0)
(0.0366052 -0.08235 0)
(-0.00482537 -0.112111 0)
(0.0118623 -0.204263 0)
(-9.68066e-06 0.0158882 0)
(-0.000597872 0.0226246 0)
(-0.00119974 0.0237302 0)
(-0.00156053 0.0241177 0)
(-0.00160959 0.0246931 0)
(-0.00126523 0.0255833 0)
(-0.000480043 0.0268029 0)
(0.000899382 0.0283708 0)
(0.0030249 0.0302828 0)
(0.0061376 0.0324908 0)
(0.0104165 0.0347553 0)
(0.0167226 0.0367164 0)
(0.023459 0.0384483 0)
(0.0350637 0.0339314 0)
(0.0365403 0.0205203 0)
(0.0482255 -0.00313198 0)
(0.0335428 -0.0344912 0)
(0.032938 -0.0683124 0)
(-0.00960885 -0.099782 0)
(0.0135882 -0.203457 0)
(-3.02882e-05 0.0161854 0)
(-0.000591973 0.0231484 0)
(-0.00108791 0.0241094 0)
(-0.00128375 0.0242172 0)
(-0.0010608 0.0244464 0)
(-0.000479304 0.0248792 0)
(0.000603457 0.0255623 0)
(0.00223774 0.02651 0)
(0.00453172 0.0276227 0)
(0.00762629 0.0287914 0)
(0.0115868 0.0297633 0)
(0.0169441 0.0300906 0)
(0.0220329 0.0299086 0)
(0.0321939 0.0260744 0)
(0.0322214 0.0158438 0)
(0.0412476 -0.00321347 0)
(0.0270734 -0.0238785 0)
(0.0284521 -0.0538892 0)
(-0.0160307 -0.0917872 0)
(0.0163287 -0.204644 0)
(-0.00024553 0.0166584 0)
(-0.000926681 0.0237872 0)
(-0.00135752 0.0244585 0)
(-0.00143331 0.0241239 0)
(-0.000993832 0.0238844 0)
(-0.000126116 0.0239145 0)
(0.00114544 0.0241312 0)
(0.00293633 0.0245101 0)
(0.00526313 0.0249624 0)
(0.00818031 0.0253528 0)
(0.0116622 0.0254559 0)
(0.0161135 0.0249349 0)
(0.0196604 0.0234516 0)
(0.0276942 0.0204617 0)
(0.0271648 0.0134686 0)
(0.0329997 -0.00157068 0)
(0.0195743 -0.0147852 0)
(0.0253412 -0.0387015 0)
(-0.018354 -0.0834582 0)
(0.0179867 -0.204633 0)
(-0.000378072 0.0174671 0)
(-0.00146208 0.0242949 0)
(-0.00195805 0.0245729 0)
(-0.00188623 0.0238548 0)
(-0.00135273 0.0232122 0)
(-0.000320369 0.0227536 0)
(0.00112593 0.0225144 0)
(0.00298858 0.0223917 0)
(0.00526833 0.0223377 0)
(0.00798138 0.0221857 0)
(0.010991 0.0218059 0)
(0.0147439 0.0209303 0)
(0.0171857 0.0188622 0)
(0.0230722 0.0168115 0)
(0.0226386 0.0123247 0)
(0.0262919 0.00114081 0)
(0.0132606 -0.00843334 0)
(0.0226846 -0.0254197 0)
(-0.0199246 -0.079863 0)
(0.0226456 -0.206683 0)
(-0.00125476 0.0188193 0)
(-0.00260863 0.0253224 0)
(-0.00320682 0.024953 0)
(-0.00291708 0.0234887 0)
(-0.00204577 0.0222934 0)
(-0.000788889 0.0214365 0)
(0.00087363 0.0208279 0)
(0.00283843 0.0203805 0)
(0.00510007 0.0199274 0)
(0.00764277 0.0194416 0)
(0.0102597 0.0187566 0)
(0.0134824 0.0178036 0)
(0.0152205 0.0157013 0)
(0.0192172 0.0144721 0)
(0.0189197 0.0117507 0)
(0.0213345 0.00411439 0)
(0.00942241 -0.00169077 0)
(0.0211149 -0.0134948 0)
(-0.0200322 -0.0792507 0)
(0.0277718 -0.209021 0)
(-0.00169677 0.0218511 0)
(-0.00454858 0.0261076 0)
(-0.00495446 0.0247625 0)
(-0.00427082 0.0229356 0)
(-0.00334879 0.0213727 0)
(-0.00196746 0.0200109 0)
(-0.000166578 0.0189738 0)
(0.0019034 0.0181803 0)
(0.00418129 0.0175335 0)
(0.00666587 0.016881 0)
(0.00905297 0.0162012 0)
(0.0119514 0.0153327 0)
(0.0134038 0.0138535 0)
(0.0162904 0.0129627 0)
(0.0169746 0.0112647 0)
(0.0196502 0.00566233 0)
(0.00882469 0.000762419 0)
(0.0189376 -0.00680475 0)
(-0.0126994 -0.0812328 0)
(0.0362403 -0.211355 0)
(-0.00558692 0.0265038 0)
(-0.0104587 0.0292594 0)
(-0.00886506 0.0253486 0)
(-0.00714615 0.0222162 0)
(-0.00513718 0.0199883 0)
(-0.00304056 0.0185112 0)
(-0.000853768 0.0171558 0)
(0.0014808 0.0162791 0)
(0.00393043 0.0152987 0)
(0.00647216 0.014648 0)
(0.00890789 0.0137462 0)
(0.0117174 0.0130825 0)
(0.0133095 0.0120164 0)
(0.0157928 0.0113069 0)
(0.0162905 0.0110767 0)
(0.0168651 0.0100548 0)
(0.00790281 0.00923946 0)
(0.0191199 0.000330113 0)
(0.00179164 -0.0906466 0)
(0.0488915 -0.210741 0)
(-0.0093256 0.0404233 0)
(-0.013677 0.0226913 0)
(-0.00728891 0.0175454 0)
(-0.00401982 0.0164605 0)
(-4.39714e-05 0.0150585 0)
(0.0032064 0.0136965 0)
(0.00698971 0.012337 0)
(0.0101497 0.0114613 0)
(0.014025 0.0106789 0)
(0.017033 0.0101872 0)
(0.0206859 0.00960075 0)
(0.0237368 0.00927246 0)
(0.0264736 0.00909583 0)
(0.0294028 0.00862448 0)
(0.0315582 0.00950473 0)
(0.0357876 0.007221 0)
(0.0326872 0.000153292 0)
(0.0439692 -0.0216171 0)
(0.0397227 -0.0993355 0)
(0.0712875 -0.17272 0)
(0.0467522 0.0422279 0)
(0.0534724 0.0317707 0)
(0.0782019 0.0239279 0)
(0.0958664 0.0201158 0)
(0.115577 0.0167717 0)
(0.125887 0.0157037 0)
(0.141603 0.013169 0)
(0.149985 0.0130072 0)
(0.163462 0.0107036 0)
(0.170916 0.0112225 0)
(0.182251 0.00893991 0)
(0.189508 0.00999727 0)
(0.198608 0.00764239 0)
(0.205852 0.0092507 0)
(0.212472 0.00671313 0)
(0.218913 0.00873415 0)
(0.222942 0.00407829 0)
(0.216979 -0.00180595 0)
(0.18929 -0.0123621 0)
(0.142595 -0.0313833 0)
)
;

boundaryField
{
    movingWall
    {
        type            fixedValue;
        value           uniform (1 0 0);
    }
    fixedWalls
    {
        type            noSlip;
    }
    frontAndBack
    {
        type            empty;
    }
}


// ************************************************************************* //
