/*--------------------------------*- C++ -*----------------------------------*\
| =========                 |                                                 |
| \\      /  F ield         | OpenFOAM: The Open Source CFD Toolbox           |
|  \\    /   O peration     | Version:  5.0                                   |
|   \\  /    A nd           | Web:      www.OpenFOAM.org                      |
|    \\/     M anipulation  |                                                 |
\*---------------------------------------------------------------------------*/
FoamFile
{
    version     2.0;
    format      ascii;
    class       volScalarField;
    location    "1.5";
    object      yPlus;
}
// * * * * * * * * * * * * * * * * * * * * * * * * * * * * * * * * * * * * * //

dimensions      [0 0 0 0 0 0 0];

internalField   uniform 0;

boundaryField
{
    movingWall
    {
        type            calculated;
        value           nonuniform List<scalar> 
20
(
15.4449
15.3872
15.1831
15.0363
14.871
14.7839
14.6501
14.5784
14.4621
14.3976
14.2986
14.2351
14.1548
14.0908
14.0317
13.9744
13.938
13.9913
14.2373
14.6456
)
;
    }
    fixedWalls
    {
        type            calculated;
        value           nonuniform List<scalar> 
60
(
0.432766
0.785735
1.0767
1.30434
1.48553
1.62994
1.74414
1.83135
1.89538
1.94043
1.97057
1.993
2.01156
2.04085
2.08993
2.17147
2.34077
2.60222
3.22044
3.96862
1.4581
2.3933
3.39508
4.66077
5.77149
6.41244
6.84422
7.0823
7.18063
7.208
7.15205
7.13986
7.16405
7.16627
7.20971
7.26047
7.32188
7.35422
6.83471
6.04168
0.432766
0.759319
1.01975
1.24132
1.44599
1.64602
1.84949
2.06299
2.2924
2.54242
2.81486
3.10653
3.40593
3.68395
3.83201
3.86622
3.6322
3.14918
2.43123
1.4581
)
;
    }
    frontAndBack
    {
        type            empty;
    }
}


// ************************************************************************* //
