/*--------------------------------*- C++ -*----------------------------------*\
  =========                 |
  \\      /  F ield         | OpenFOAM: The Open Source CFD Toolbox
   \\    /   O peration     | Website:  https://openfoam.org
    \\  /    A nd           | Version:  6
     \\/     M anipulation  |
\*---------------------------------------------------------------------------*/
FoamFile
{
    version     2.0;
    format      ascii;
    class       volScalarField;
    location    "0.5";
    object      Co;
}
// * * * * * * * * * * * * * * * * * * * * * * * * * * * * * * * * * * * * * //

dimensions      [0 0 0 0 0 0 0];

internalField   nonuniform List<scalar> 
242
(
0.00552966
0.000318657
0.00029625
0.0313839
0.0239329
0.000318656
0.00029625
0.0313839
0.0239329
0.00466083
0.00996683
0.00889176
0.00785423
0.00485546
0.008197
0.0104795
0.00872924
0.00809948
0.0103993
0.00713253
0.0126776
0.00340659
0.0103346
0.00947044
0.00312156
0.00481131
0.0108429
0.0120679
0.00276176
0.0049388
0.0157879
0.0102724
0.00335705
0.00437019
0.00469489
0.0474481
0.00331063
0.00534388
0.00167758
0.00640795
0.00199891
0.0565366
0.00394476
0.0104894
0.0036282
0.0149855
0.0112101
0.00291816
0.00475687
0.0156103
0.005216
0.00717595
0.0107781
0.0094089
0.011577
0.00227211
0.0141289
0.00300991
0.0529706
0.0102674
0.00130856
0.00101765
0.0162274
0.00109055
0.0434493
0.00121805
0.0478893
0.00343307
0.00539357
0.00169318
0.0163864
0.0106618
0.00254646
0.00264934
0.00639767
0.00791506
0.00765036
0.00404618
0.0158765
0.0112808
0.00548346
0.00507865
0.00845364
0.0196086
0.00248082
0.00211119
0.0153007
0.0136808
0.00365464
0.0037027
0.0113467
0.011502
0.00692558
0.00640647
0.0559224
0.00448273
0.00285149
0.00138376
0.0141617
0.0164359
0.0062707
0.00367119
0.075683
0.0178539
0.00186965
0.00145399
0.0296657
0.00160117
0.0637937
0.00178837
0.0135248
0.00606445
0.00225183
0.00298378
0.0248244
0.0124684
0.00224156
0.00233729
0.000693565
0.0509997
0.000597587
0.0152607
0.0251242
0.000646396
0.0419947
0.000650571
0.00715165
0.00674318
0.00516497
0.00260137
0.000694199
0.000598136
0.0510463
0.0299177
0.039232
0.000646989
0.042033
0.000651169
0.0171359
0.0148976
0.00224505
0.00237035
0.0146873
0.00728416
0.00685196
0.00486158
0.00764014
0.0107229
0.00693857
0.00462173
0.0126608
0.00527776
0.0158813
0.00349724
0.0689774
0.0133701
0.00959527
0.0156532
0.00992655
0.0132106
0.00326552
0.00240531
0.0510376
0.0190614
0.00150325
0.00128101
0.001704
0.00132517
0.00369939
0.00241997
0.0110255
0.00889316
0.00846002
0.00352445
0.0150083
0.0153229
0.00835881
0.00662002
0.0145945
0.0260355
0.0366899
0.00125262
0.0184246
0.0012256
0.00131958
0.00118407
0.0119524
0.0109295
0.0109371
0.0111541
0.00674354
0.00570243
0.00393964
0.00342186
0.0167395
0.0151095
0.0113748
0.0164635
0.00591855
0.00476371
0.00397347
0.0040723
0.0219532
0.019081
0.0034712
0.00353825
0.0169578
0.0245914
0.0329036
0.013716
0.00166647
0.00166647
0.0015607
0.0015607
0.00899704
0.0108991
0.0751193
0.00618318
0.0183814
0.0118065
0.00383034
0.00185878
0.00434417
0.00284176
0.0628516
0.00576878
0.00174761
0.00110412
0.00817062
0.00124159
0.0560304
0.00176288
0.0145143
0.0139615
0.00743643
0.0057488
0.0111642
0.011829
0.00635544
0.00320096
0.00715934
0.00816853
)
;

boundaryField
{
    frontAndBack
    {
        type            empty;
    }
    fixedWalls
    {
        type            zeroGradient;
    }
    movingWall
    {
        type            zeroGradient;
    }
}


// ************************************************************************* //
