/*--------------------------------*- C++ -*----------------------------------*\
  =========                 |
  \\      /  F ield         | OpenFOAM: The Open Source CFD Toolbox
   \\    /   O peration     | Website:  https://openfoam.org
    \\  /    A nd           | Version:  6
     \\/     M anipulation  |
\*---------------------------------------------------------------------------*/
FoamFile
{
    version     2.0;
    format      ascii;
    class       volScalarField;
    location    "0.5";
    object      p;
}
// * * * * * * * * * * * * * * * * * * * * * * * * * * * * * * * * * * * * * //

dimensions      [0 2 -2 0 0 0 0];

internalField   nonuniform List<scalar> 
242
(
-9.76536e-09
0.0100904
-0.00899634
0.364818
-0.243264
0.00989359
-0.00917227
0.409949
-0.19277
-0.00145523
-0.0230039
0.0159925
-0.0155719
0.00186783
-0.0144965
-0.0179136
0.0046037
0.00825796
-0.0239176
-0.0178629
0.020326
0.00126369
-0.0409661
0.00279794
-0.00670197
0.0138844
-0.0406724
0.0113073
-0.00782374
0.0112421
0.0368175
-0.0508669
0.00655291
-0.0136641
-0.0080375
-0.0329319
-0.0201992
0.0318635
0.00179249
0.036952
0.00346922
-0.0557738
-0.0168657
0.0111276
-0.00139223
0.0262682
-0.0462557
0.00744942
-0.0111873
-0.0235785
-0.00826495
-0.00979948
-0.0095317
-0.000366028
0.0398991
0.00382662
-0.0564803
-0.0154152
0.0257197
-0.0683864
0.0119966
-0.00752868
0.0914573
0.0080998
-0.0753018
-0.010925
-0.0226798
-0.0237365
0.0250942
-0.000415465
0.0526904
-0.0723542
0.0070795
-0.0121319
-0.0353716
-0.0247045
0.0253606
-8.13317e-05
0.00312689
-0.0279796
0.0103359
-0.00646133
0.0162745
-0.071768
0.011424
-0.0081683
0.0100271
-0.0350375
0.00943162
-0.00770133
0.00232094
0.00653641
0.00599475
0.00471431
-0.0296516
-0.0286159
0.0215938
-0.00174756
-0.0347349
0.0274424
-0.0170757
0.00161628
0.0526139
-0.0815798
0.0108659
-0.00842108
0.108779
0.00910638
-0.0943134
-0.00990609
-0.0534813
0.00918209
-0.00685305
0.0128353
0.0599349
-0.0765056
0.00880053
-0.0105876
0.0101416
0.121188
-0.00898884
-0.115755
0.182622
0.00981303
-0.107356
-0.00921084
-0.02062
-0.026711
0.0223386
-0.00100312
0.00990024
-0.00918532
0.172529
-0.144357
0.201428
0.0100689
-0.124844
-0.00897745
0.0352776
-0.0670513
0.00977272
-0.00914213
-0.00655774
-0.0233374
0.0127644
-0.00343926
-0.0374222
-0.0221878
-0.03926
-0.0170567
0.0292283
0.00141863
0.0334749
0.00304294
-0.00660054
-0.0534878
-0.0624667
-0.00503147
-0.047118
0.049584
-0.0130197
0.00648659
-0.0647405
0.0660858
-0.0121079
0.0068621
0.0131304
-0.00651384
0.0141811
-0.00616846
-0.0150621
-0.0238155
0.0158598
-0.00217866
-0.00883381
-0.0147324
-0.0170755
-0.0149457
0.0403349
-0.08459
0.0812898
0.0108239
-0.0922149
-0.0083106
0.00904443
-0.00988752
-0.00691973
-0.013401
-0.0348642
-0.0282517
0.017415
0.0168767
-0.00382494
-0.00213054
-0.0289179
-0.0374443
0.0166413
0.0201991
-0.0125111
0.0042535
-0.0104755
0.00666176
0.0265439
-0.0537033
0.00980989
-0.00931502
0.0806985
-0.10524
0.100254
-0.097423
0.0104563
0.00968614
-0.00883458
-0.00952493
-0.00278839
-0.00230606
-0.0171299
-0.0354691
-0.0152083
-0.0395892
0.0173928
-0.00387196
0.0169343
-0.00399047
-0.0121688
-0.0424917
0.0147623
-0.00533106
0.0505353
0.00540884
-0.065397
-0.0138709
-0.0464564
0.0332498
-0.0164529
0.00403491
-0.0196977
-0.0341261
0.01872
-0.00315377
-0.00239838
-0.00708776
)
;

boundaryField
{
    frontAndBack
    {
        type            empty;
    }
    fixedWalls
    {
        type            zeroGradient;
    }
    movingWall
    {
        type            zeroGradient;
    }
}


// ************************************************************************* //
