/*--------------------------------*- C++ -*----------------------------------*\
  =========                 |
  \\      /  F ield         | OpenFOAM: The Open Source CFD Toolbox
   \\    /   O peration     | Website:  https://openfoam.org
    \\  /    A nd           | Version:  6
     \\/     M anipulation  |
\*---------------------------------------------------------------------------*/
FoamFile
{
    version     2.0;
    format      ascii;
    class       surfaceScalarField;
    location    "0.5";
    object      phi;
}
// * * * * * * * * * * * * * * * * * * * * * * * * * * * * * * * * * * * * * //

dimensions      [0 3 -1 0 0 0 0];

internalField   nonuniform List<scalar> 
343
(
0.000481084
-0.000481522
4.38197e-07
3.18268e-05
-3.18268e-05
2.95889e-05
-2.95889e-05
0.00313456
-0.00313456
0.00239037
-0.00239037
3.18268e-05
2.95889e-05
0.00313456
0.00239037
0.000414676
6.64074e-05
-0.000202327
-0.000605821
0.000808148
-0.000647779
0.00063214
1.56398e-05
0.000672979
-0.00023689
-0.000436089
0.000155498
0.000200032
-0.000355529
0.000462482
-0.000882083
0.0004196
0.00100743
-0.00054495
-0.000836864
0.000765725
7.11395e-05
-0.000780015
-5.68493e-05
0.000770959
-0.000973286
0.000205148
0.000467832
-0.000978948
0.000331168
-0.000106082
0.00026158
-0.000430436
0.0011035
-0.000673061
-0.000452886
-0.00056633
0.00101922
0.00028955
4.63952e-05
-0.000335945
0.000517797
-3.15349e-05
-0.000486263
-0.00109716
0.00066672
0.000812345
-0.00126523
1.31054e-05
0.000276445
0.000266746
0.000251051
0.000941658
-0.00157911
0.000637455
-0.000205844
0.00103004
-0.000824192
-0.000257974
-7.77992e-05
0.000335773
-0.000438213
-3.07744e-06
0.000441291
0.000217834
0.000196842
-0.00520392
0.00520392
-0.000363097
0.000363097
-0.000586095
0.000586095
-0.00018399
0.00018399
3.72604e-06
-0.000589821
-9.43618e-05
-8.96282e-05
-0.0011592
-0.00404472
-0.000235838
-0.000127259
-0.000147876
0.000266439
0.0013974
-0.000455744
-0.00103167
0.000825824
1.4144e-05
-0.000272118
-0.000229375
-0.000208838
0.000651256
0.000356177
-0.000135519
0.000353353
0.000477403
-0.000280561
-0.000693159
-0.000188924
0.000296678
0.000469047
0.000949831
-0.000946105
9.20518e-05
-0.000186414
-0.000415555
-0.000743646
1.11085e-05
-0.000246946
0.00517337
-0.00517337
0.00100277
-0.00100277
0.000127801
-0.000127801
9.9389e-05
-9.9389e-05
-0.00161367
0.00161367
-0.000108445
0.000108445
-0.00432064
0.00432064
-0.000121124
0.000121124
0.00465392
0.000549999
0.000373056
-9.95886e-06
0.000237304
0.000348791
0.000115158
6.88317e-05
-0.00150137
-7.77392e-05
0.000562311
0.000467726
-0.000245396
0.000167597
-0.000256159
0.000253082
3.99391e-05
0.000468788
-0.000508728
0.000594835
-0.000657547
6.27121e-05
7.72665e-05
-0.000608339
0.000531072
0.000145756
-0.000321743
0.000175987
-0.00139023
0.000156912
0.00123332
0.0009645
-0.000313245
5.35734e-05
0.000431448
-0.000485021
0.000299006
-0.000434525
0.000337351
0.000504688
-0.000842039
-0.00126301
-0.000690131
0.00195314
-0.000247106
0.000225473
2.16336e-05
-0.000210288
0.000169945
4.03431e-05
-0.000577882
-0.000132656
0.00032032
0.000312112
-0.00077831
0.000935222
-0.00083516
0.000502587
2.10656e-05
0.00465392
0.000373056
0.000237304
0.000115158
-8.49163e-05
0.000855875
-0.000163491
-0.000815457
0.000379802
-0.000174655
0.00011258
-0.000218662
0.0040785
0.00109486
0.00122042
-0.000217647
5.54651e-05
7.23363e-05
4.77899e-05
5.1599e-05
-0.00200921
0.00039554
-5.16932e-05
-5.67518e-05
-0.00335836
-0.000962281
-5.20271e-05
-6.90969e-05
-0.000159512
-0.000228979
-0.000163892
-0.000278641
0.00121629
-0.00271766
-0.000802414
0.00136473
-0.000204406
-4.099e-05
-0.000237551
-1.8608e-05
5.54651e-05
0.0040785
4.77899e-05
0.00122042
-0.00200921
-5.16932e-05
-0.00335836
-5.20271e-05
0.000589939
0.000584876
0.000426058
0.000214587
2.36383e-05
1.82011e-05
0.000943948
-0.00116995
0.00112535
-1.98664e-05
-0.000967983
-2.24383e-05
0.00172098
-0.00149254
2.10668e-05
-6.76066e-05
0.000621285
0.00061203
0.000346869
-0.000660114
-0.000632897
-0.000168086
0.000383872
-0.000277745
-3.16831e-05
-0.000266636
-0.00077183
-0.000209163
0.000178002
-0.000117112
-0.000999763
-0.0041736
-0.000619702
-0.00038307
-0.000275921
-0.00122874
-0.000779213
-0.00102384
6.13517e-06
-1.88168e-05
0.00404472
0.000589821
0.000127259
8.96282e-05
-1.17534e-05
-0.000116048
-2.6071e-05
-7.3318e-05
-0.000290395
-0.000189963
-0.000352001
0.000814701
-0.000301729
9.34936e-05
0.00115077
-0.000538742
-0.000240513
0.000252822
0.00173549
-0.00232212
9.397e-05
0.000402444
9.19421e-05
-9.77418e-05
-8.77049e-05
0.000860728
0.000158488
-0.000877413
0.000204352
0.000229344
-0.000256919
-0.000269481
-6.64645e-05
0.00116433
-0.00081952
-8.27364e-05
-0.000334464
0.00119677
0.000565539
0.000117608
0.000110143
-0.000396481
0.000480315
0.0041736
-1.00143e-05
0.00038307
-0.000748427
-0.000789228
0.000121256
0.000116048
4.18404e-05
7.3318e-05
-0.000169139
-0.000148123
0.000469485
)
;

boundaryField
{
    frontAndBack
    {
        type            empty;
        value           nonuniform 0();
    }
    fixedWalls
    {
        type            calculated;
        value           uniform 0;
    }
    movingWall
    {
        type            calculated;
        value           uniform 0;
    }
}


// ************************************************************************* //
