/*--------------------------------*- C++ -*----------------------------------*\
  =========                 |
  \\      /  F ield         | OpenFOAM: The Open Source CFD Toolbox
   \\    /   O peration     | Website:  https://openfoam.org
    \\  /    A nd           | Version:  6
     \\/     M anipulation  |
\*---------------------------------------------------------------------------*/
FoamFile
{
    version     2.0;
    format      ascii;
    class       volVectorField;
    location    "0.5";
    object      U;
}
// * * * * * * * * * * * * * * * * * * * * * * * * * * * * * * * * * * * * * //

dimensions      [0 1 -1 0 0 0 0];

internalField   nonuniform List<vector> 
242
(
(-0.0526905 -0.000376678 -3.61229e-22)
(-0.00138755 -0.00161545 4.03471e-20)
(-0.00150936 0.0012278 0)
(0.371201 -0.0158522 0)
(0.0289577 0.146426 8.79266e-19)
(-0.00162663 -0.00132665 -4.03484e-20)
(-0.00129281 0.00148186 0)
(0.188124 -0.123048 0)
(0.341339 0.0486666 -8.81443e-19)
(-0.0488841 0.0026707 0)
(-0.107976 0.0287719 5.60349e-20)
(-0.0787675 -0.0462044 0)
(-0.0459792 0.0329201 0)
(-0.0393138 -0.00291511 -2.16434e-21)
(-0.0761731 0.0260538 1.52494e-20)
(-0.0877382 0.029222 0)
(-0.0683444 -0.0121768 6.056e-22)
(-0.0717997 -0.0210356 0)
(-0.112004 0.031657 0)
(-0.0425868 0.0407342 0)
(-0.0742647 -0.0574696 -3.16222e-20)
(-0.0357513 -0.0017518 3.80639e-21)
(-0.0699421 0.0882012 7.85267e-20)
(-0.114381 -0.0108903 0)
(-0.0282881 0.0100513 0)
(-0.0273391 -0.0322894 -2.39592e-20)
(-0.0811882 0.0829215 -8.25903e-20)
(-0.136943 -0.0269035 0)
(-0.0283014 0.0127748 -1.94167e-20)
(-0.0317188 -0.0249818 4.46249e-20)
(-0.108161 -0.10015 0)
(-0.108745 0.0617841 -1.26062e-19)
(-0.0299661 -0.00946793 -8.88325e-21)
(-0.025118 0.0303646 2.61302e-20)
(-0.0493375 0.016241 0)
(0.577951 -0.00249258 8.41856e-20)
(-0.00584604 0.0278469 0)
(-0.00931933 -0.0490657 -6.43891e-20)
(-0.0142861 -0.000528288 0)
(-0.0217371 -0.0804987 1.26104e-19)
(-0.0186998 -0.00137129 0)
(0.391553 0.0148755 -1.67495e-19)
(-0.00880292 0.0314348 0)
(-0.0678072 -0.0291107 3.21742e-20)
(-0.042962 0.00281181 6.3752e-21)
(-0.121163 -0.0719196 1.44747e-20)
(-0.108586 0.0672395 0)
(-0.0310793 -0.0119685 -1.06159e-20)
(-0.0292892 0.0238998 0)
(-0.0911352 0.0399846 5.10585e-21)
(-0.0448231 0.0163974 2.15401e-22)
(-0.0551894 0.0201238 -1.25802e-20)
(-0.076492 0.0164903 0)
(-0.0700098 -0.00259251 -3.81326e-22)
(-0.0474952 -0.102268 8.93676e-20)
(-0.0241251 -0.00175914 8.32614e-21)
(0.0878667 0.0418511 0)
(-0.0117513 0.0355258 0)
(0.627875 0.00256526 0)
(-0.0143649 0.0917509 0)
(-0.00272346 -0.0103085 1.03467e-20)
(-0.0079984 0.00148696 -7.17783e-21)
(-0.0303203 -0.149716 -2.06551e-19)
(-0.00868235 -0.00161869 0)
(0.55665 0.0186684 0)
(-0.00262156 0.0096954 2.09607e-20)
(0.364177 0.00344169 0)
(-0.00945547 0.047163 0)
(-0.0133054 -0.0507341 0)
(-0.0195168 0.000570191 7.11025e-22)
(-0.109526 -0.149699 0)
(-0.0613876 0.0584717 2.10535e-19)
(-0.0230449 -0.00741938 2.29547e-20)
(-0.0143915 0.02495 -3.95132e-20)
(-0.0428186 0.00319321 -4.63813e-20)
(-0.029096 0.0591216 9.08179e-20)
(-0.0342938 -0.0679591 -5.27395e-20)
(-0.0302975 -5.64639e-05 1.78998e-21)
(-0.122154 -0.0190134 1.23301e-23)
(-0.0773781 0.0553087 7.51614e-20)
(-0.0455827 -0.0259508 0)
(-0.0394254 0.0119159 -5.55611e-22)
(-0.064233 -0.0868356 -6.1801e-20)
(-0.0980896 0.143025 -1.63184e-19)
(-0.0139709 -0.0189872 0)
(-0.0175306 0.00896351 1.70035e-20)
(-0.125866 -0.0307831 0)
(-0.0860529 0.0653669 -1.26223e-19)
(-0.0372525 -0.0223245 -1.45899e-20)
(-0.0341439 0.0135957 1.87664e-20)
(-0.0971148 -0.0149501 1.11959e-20)
(-0.0931197 -0.0227919 -1.26622e-20)
(-0.0526356 -0.0149402 1.8775e-21)
(-0.0500502 -0.0113575 4.00005e-22)
(0.682106 0.00717937 0)
(-0.00516103 0.0324344 3.91065e-20)
(-0.00408264 -0.0240256 -2.30491e-20)
(-0.0106038 0.000242822 -3.56186e-21)
(-0.104257 0.0386855 0)
(-0.0709254 -0.0736343 -5.7188e-20)
(-0.0345834 0.0417408 -3.22971e-20)
(-0.0330924 -0.00161359 -7.16285e-21)
(0.421436 -0.0305682 -3.46146e-20)
(-0.0340275 0.154537 0)
(-0.00445191 -0.0111237 -4.1433e-20)
(-0.00927073 0.00284535 0)
(-0.0623341 -0.241704 3.02453e-19)
(-0.00999877 -0.00307621 6.75102e-21)
(0.31912 0.0484836 -7.43492e-20)
(-0.00417417 0.0104147 -3.09296e-20)
(-0.0604803 0.122698 0)
(-0.0390407 -0.0186415 0)
(-0.0218108 0.00728084 0)
(-0.0157119 -0.0270427 0)
(-0.162186 -0.181074 0)
(-0.0902663 0.104721 -2.31804e-19)
(-0.0190283 -0.00977887 -7.42107e-21)
(-0.0134842 0.0180388 1.07253e-20)
(-0.0017034 -0.00419594 -2.48514e-20)
(0.622857 0.000185869 0)
(-0.00361493 0.00127536 -2.25358e-20)
(-0.0106521 0.137109 0)
(0.00142086 -0.220363 0)
(-0.00391873 -0.00137918 0)
(0.551012 0.0349725 -2.26114e-19)
(-0.00159173 0.00390979 1.66096e-20)
(0.103243 -0.00760195 0)
(-0.0207611 0.0628866 -6.8358e-20)
(-0.0214855 -0.0565727 5.89274e-20)
(-0.0260619 0.000691538 -2.24142e-21)
(-0.00278231 -0.00493193 1.90257e-20)
(-0.00452857 0.00234332 2.88668e-20)
(0.286861 -0.0578977 0)
(-0.0525325 0.262622 0)
(0.014603 -0.369078 0)
(-0.00488679 -0.00255183 0)
(0.14742 0.0865603 2.25703e-19)
(-0.00262368 0.00461855 -2.90565e-20)
(-0.153323 -0.0944791 0)
(-0.107241 0.113633 0)
(-0.0199275 -0.0152445 0)
(-0.0184846 0.0147251 0)
(-0.120271 0.00244353 0)
(-0.0630436 0.0499801 0)
(-0.0522629 -0.032837 -2.62434e-20)
(-0.0399162 0.00620112 -2.14792e-21)
(-0.0634957 0.0191378 5.91405e-20)
(-0.0281225 0.0529205 2.58468e-20)
(-0.0267182 0.0400045 0)
(-0.0167642 0.0423057 -3.23912e-20)
(-0.0481642 -0.0770224 1.26073e-21)
(-0.0310364 -0.00109781 1.24912e-21)
(-0.0568551 -0.0914174 -1.20256e-19)
(-0.0282027 -0.00194573 -1.70847e-20)
(0.464736 -0.000136526 0)
(-0.0252621 0.100084 0)
(0.0880275 0.0320817 0)
(0.11528 0.00812255 0)
(-0.0382295 0.108591 1.38982e-20)
(-0.0751212 -0.140004 0)
(-0.00999863 0.0257329 0)
(-0.0213639 -0.00432985 0)
(0.343193 0.0255836 1.57495e-19)
(-0.0473916 -0.14875 1.39229e-19)
(-0.00464195 0.0180314 3.14811e-20)
(-0.0146639 -0.00215294 1.46507e-20)
(-0.0045076 -0.0188822 1.7095e-20)
(-0.0134712 0.0019443 9.40781e-21)
(-0.0107152 -0.0288666 0)
(-0.0205832 0.0042249 0)
(-0.116883 0.0112504 -3.27592e-20)
(-0.0552688 0.0527198 -5.84362e-20)
(-0.0503455 -0.0439679 4.48247e-20)
(-0.0353292 0.00362459 2.28482e-21)
(-0.105402 0.00962898 -1.52152e-20)
(-0.104182 0.0198758 -2.52362e-20)
(-0.0624901 0.0344288 -1.03193e-20)
(-0.05469 0.0314011 -1.11857e-20)
(0.0641438 -0.118635 9.16552e-20)
(-0.0923494 0.170691 2.13554e-19)
(-0.135721 -0.237498 3.09769e-20)
(-0.00854065 -0.0139222 7.30685e-21)
(-0.0245041 0.112123 2.35198e-19)
(-0.0127571 0.00586946 -2.22312e-20)
(-0.013565 -0.00622972 -6.20241e-21)
(-0.00796683 0.0130447 6.76337e-21)
(-0.091934 0.0104271 8.4268e-21)
(-0.108872 0.0125665 3.65186e-20)
(-0.0502962 0.0796326 7.99296e-20)
(-0.0506525 0.0642392 -1.37158e-20)
(-0.0408376 -0.0475318 2.88235e-20)
(-0.0293846 -0.0410241 -5.17378e-20)
(-0.0309192 0.00531237 7.04233e-21)
(-0.0324111 0.0032693 -1.45196e-20)
(-0.107621 0.0403024 -4.27454e-20)
(-0.105791 0.0586322 4.76719e-20)
(-0.095746 -0.0461166 -2.524e-20)
(-0.113484 -0.0520305 2.19985e-20)
(-0.0416373 0.0258401 4.4227e-22)
(-0.0416156 -0.00904715 0)
(-0.0338873 0.0225533 0)
(-0.0368582 -0.0125155 7.51557e-21)
(-0.149671 -0.0712008 -1.72452e-20)
(-0.104653 0.0940315 0)
(-0.0267006 -0.0175547 -5.70085e-21)
(-0.0242167 0.0168438 5.68377e-21)
(0.00749997 -0.183787 2.189e-20)
(-0.109338 0.188165 0)
(-0.104005 -0.258221 -3.25682e-20)
(-0.0534033 0.149886 7.89054e-20)
(-0.00731022 -0.00925625 7.29853e-21)
(-0.00959328 -0.0065009 0)
(-0.00903918 0.00602789 -6.44206e-21)
(-0.00689323 0.00860815 6.6332e-21)
(-0.0798684 0.00188443 -2.12602e-21)
(-0.0915379 -0.000437902 1.36779e-20)
(0.481811 0.0112956 2.40223e-20)
(-0.0107471 0.0611488 -8.32849e-20)
(0.169445 0.00869844 0)
(-0.0270942 0.0865665 -9.8807e-20)
(-0.00558253 -0.0281881 4.97415e-21)
(-0.0155495 0.000771031 1.22482e-20)
(-0.011275 -0.0366149 5.35952e-20)
(-0.0227159 0.00198354 0)
(0.769973 0.00616453 -2.15326e-20)
(-0.00569492 0.0388354 0)
(-0.00163042 -0.0114925 2.3622e-20)
(-0.00701815 0.000389589 -6.70479e-21)
(-0.012563 -0.061354 -2.18812e-19)
(-0.00821157 -0.000711315 -1.66308e-20)
(0.709413 0.014195 -9.4338e-20)
(-0.00239107 0.0118988 -3.57349e-20)
(-0.099191 0.0399262 0)
(-0.0772596 -0.090237 5.19204e-20)
(-0.0253583 0.037065 0)
(-0.0322105 -0.00540401 2.42412e-21)
(0.0413496 0.00947418 -1.0598e-20)
(-0.0337723 0.0808948 1.23265e-19)
(-0.0186547 -0.0445829 -4.019e-20)
(-0.0266147 0.00253968 0)
(-0.0621934 0.0045904 0)
(-0.065291 0.0137921 1.45771e-20)
)
;

boundaryField
{
    frontAndBack
    {
        type            empty;
    }
    fixedWalls
    {
        type            noSlip;
    }
    movingWall
    {
        type            fixedValue;
        value           uniform (1 0 0);
    }
}


// ************************************************************************* //
