/*--------------------------------*- C++ -*----------------------------------*\
| =========                 |                                                 |
| \\      /  F ield         | OpenFOAM: The Open Source CFD Toolbox           |
|  \\    /   O peration     | Version:  5.0                                   |
|   \\  /    A nd           | Web:      www.OpenFOAM.org                      |
|    \\/     M anipulation  |                                                 |
\*---------------------------------------------------------------------------*/
FoamFile
{
    version     2.0;
    format      ascii;
    class       volScalarField;
    location    "5";
    object      epsilon;
}
// * * * * * * * * * * * * * * * * * * * * * * * * * * * * * * * * * * * * * //

dimensions      [0 2 -3 0 0 0 0];

internalField   nonuniform List<scalar> 
400
(
9.32714e-06
2.33084e-05
9.90124e-05
0.000303606
0.000521586
0.000685199
0.000815616
0.00093549
0.00104412
0.00114976
0.00125265
0.00135681
0.00146449
0.00155156
0.00159384
0.00160466
0.00151183
0.0011952
0.000719023
0.000511856
4.58394e-05
0.000111822
0.00031832
0.000622257
0.000750049
0.000813243
0.000842849
0.000888984
0.000937857
0.00101152
0.00110512
0.00122559
0.00137176
0.00154595
0.00174358
0.00195244
0.00206267
0.00208569
0.0016938
0.00115077
0.000178299
0.000404648
0.000648508
0.000738402
0.00077147
0.000793462
0.000809215
0.000848003
0.000908556
0.000985392
0.00107437
0.0011757
0.00129112
0.00143482
0.00161222
0.00182593
0.00202386
0.0021079
0.00199261
0.00157017
0.000422286
0.000669575
0.000733717
0.000735066
0.000742131
0.00074046
0.000755252
0.000794229
0.0008405
0.000891594
0.000944715
0.00101183
0.00110731
0.00124291
0.00143867
0.00170738
0.00200648
0.00214253
0.00214111
0.00184175
0.00062842
0.000783522
0.000741568
0.000704366
0.000676877
0.000666932
0.000668984
0.000685258
0.000697822
0.000712673
0.000737417
0.000784006
0.000867294
0.00100769
0.00123532
0.00157755
0.00202556
0.00230765
0.00235018
0.00205282
0.000785951
0.000819453
0.000718899
0.000641402
0.000602889
0.000582124
0.000568294
0.000555906
0.000539888
0.000532186
0.000531513
0.000559593
0.000629166
0.000766169
0.00101226
0.00142049
0.00201838
0.00251127
0.00263197
0.00222313
0.000837097
0.000799576
0.000666351
0.000577472
0.000534129
0.000503304
0.000473808
0.000441371
0.000407574
0.000383793
0.000374302
0.000383591
0.000435777
0.000553805
0.000789628
0.0012263
0.00194762
0.00271896
0.00295778
0.00236116
0.000828249
0.000750736
0.0006062
0.000520976
0.000475416
0.000437652
0.000397943
0.000355176
0.000314101
0.000283435
0.000269558
0.000268593
0.000302744
0.000394191
0.000599092
0.00102618
0.00181745
0.00289097
0.00335055
0.0024735
0.00079931
0.000684833
0.000551349
0.000473467
0.000428382
0.000387514
0.000343401
0.000297629
0.000255968
0.000224043
0.000207147
0.000202817
0.00022248
0.00028771
0.000452566
0.000843103
0.00166846
0.00297439
0.00374542
0.0025567
0.000737646
0.000627
0.000505958
0.000436142
0.000392775
0.00035158
0.000307151
0.000262552
0.000223279
0.000193398
0.000175883
0.000170447
0.000182634
0.000227841
0.000354128
0.000695389
0.00152241
0.00300727
0.00416738
0.00262068
0.000666392
0.000575242
0.00046787
0.00040574
0.000365344
0.000326239
0.000284376
0.000243148
0.00020745
0.000180498
0.000163705
0.000158227
0.00016667
0.000200297
0.000298764
0.000586841
0.00137696
0.0030118
0.00456483
0.0026541
0.000606763
0.00054232
0.000442646
0.000385579
0.000347245
0.000310216
0.000271392
0.000234035
0.000202602
0.000178599
0.000162689
0.000157026
0.000163311
0.000191349
0.000274182
0.00052248
0.00124859
0.00298258
0.00492586
0.00266916
0.000539948
0.000510729
0.00042383
0.000369138
0.000332708
0.000298876
0.000264988
0.000232842
0.000204326
0.000182118
0.000167378
0.000162933
0.000168395
0.000192285
0.000266945
0.000493363
0.0011642
0.00294822
0.00514295
0.00267213
0.000481907
0.000495487
0.00042509
0.00036981
0.000333035
0.000299499
0.000266773
0.000236257
0.000210204
0.000190518
0.000177134
0.000174536
0.000180748
0.000205059
0.00027578
0.00048692
0.00112607
0.00291972
0.00522808
0.00266056
0.000410147
0.000469283
0.000428273
0.000376898
0.00034037
0.000306915
0.000275164
0.00024621
0.000222181
0.000204174
0.000191728
0.000191813
0.000200003
0.000228508
0.000305166
0.000518192
0.00112265
0.00291171
0.00519291
0.00264711
0.000346706
0.000452911
0.000438672
0.000400644
0.000364278
0.000330095
0.000297732
0.000268655
0.000244773
0.000226735
0.00021659
0.000218976
0.000232399
0.000271761
0.000368333
0.000615706
0.00122913
0.00298691
0.00489291
0.00257166
0.000261797
0.000392942
0.000440355
0.0004355
0.000415891
0.00038355
0.000349762
0.000318915
0.000294793
0.0002776
0.000275894
0.000285228
0.000314419
0.000385364
0.000538227
0.000896592
0.0015806
0.00327855
0.00441202
0.00246783
0.000189538
0.000370086
0.00049375
0.000545031
0.000550261
0.000534534
0.000502972
0.000475029
0.00046251
0.000468149
0.000493345
0.000551666
0.000659325
0.000849454
0.00116794
0.00188679
0.00270124
0.0040337
0.00415649
0.00229734
0.000242762
0.00041089
0.000728625
0.000900219
0.000991736
0.00104178
0.00108923
0.00114791
0.0012556
0.00140995
0.00163736
0.00195298
0.00237832
0.00301626
0.00378292
0.00491248
0.00535233
0.00503809
0.00418694
0.00205708
0.000179889
0.000290075
0.000535243
0.000775986
0.000969227
0.00111381
0.00121136
0.001288
0.001341
0.00139985
0.00143991
0.00150663
0.00155238
0.00164319
0.00170671
0.00181947
0.00191326
0.00200349
0.00197934
0.0017681
)
;

boundaryField
{
    movingWall
    {
        Cmu             0.09;
        kappa           0.41;
        E               9.8;
        type            epsilonWallFunction;
        value           nonuniform List<scalar> 
20
(
0.000179889
0.000290075
0.000535243
0.000775986
0.000969227
0.00111381
0.00121136
0.001288
0.001341
0.00139985
0.00143991
0.00150663
0.00155238
0.00164319
0.00170671
0.00181947
0.00191326
0.00200349
0.00197934
0.0017681
)
;
    }
    fixedWalls
    {
        Cmu             0.09;
        kappa           0.41;
        E               9.8;
        type            epsilonWallFunction;
        value           nonuniform List<scalar> 
60
(
9.32714e-06
4.58394e-05
0.000178299
0.000422286
0.00062842
0.000785951
0.000837097
0.000828249
0.00079931
0.000737646
0.000666392
0.000606763
0.000539948
0.000481907
0.000410147
0.000346706
0.000261797
0.000189538
0.000242762
0.000179889
0.000511856
0.00115077
0.00157017
0.00184175
0.00205282
0.00222313
0.00236116
0.0024735
0.0025567
0.00262068
0.0026541
0.00266916
0.00267213
0.00266056
0.00264711
0.00257166
0.00246783
0.00229734
0.00205708
0.0017681
9.32714e-06
2.33084e-05
9.90124e-05
0.000303606
0.000521586
0.000685199
0.000815616
0.00093549
0.00104412
0.00114976
0.00125265
0.00135681
0.00146449
0.00155156
0.00159384
0.00160466
0.00151183
0.0011952
0.000719023
0.000511856
)
;
    }
    frontAndBack
    {
        type            empty;
    }
}


// ************************************************************************* //
