/*--------------------------------*- C++ -*----------------------------------*\
| =========                 |                                                 |
| \\      /  F ield         | OpenFOAM: The Open Source CFD Toolbox           |
|  \\    /   O peration     | Version:  5.0                                   |
|   \\  /    A nd           | Web:      www.OpenFOAM.org                      |
|    \\/     M anipulation  |                                                 |
\*---------------------------------------------------------------------------*/
FoamFile
{
    version     2.0;
    format      ascii;
    class       volScalarField;
    location    "5";
    object      k;
}
// * * * * * * * * * * * * * * * * * * * * * * * * * * * * * * * * * * * * * //

dimensions      [0 2 -2 0 0 0 0];

internalField   nonuniform List<scalar> 
400
(
2.92111e-06
7.28947e-06
3.09649e-05
9.4959e-05
0.000163133
0.000214304
0.000255083
0.000292575
0.000326541
0.000359582
0.000391751
0.000424328
0.000458001
0.000485221
0.000498437
0.000501815
0.000472779
0.00037378
0.000224868
0.000160079
1.43465e-05
5.40142e-05
0.000120746
0.000241929
0.00032726
0.000406435
0.000463217
0.000525166
0.000583302
0.000643351
0.000703773
0.000765335
0.000824414
0.000881758
0.000935843
0.000964613
0.000974105
0.000885662
0.000587194
0.000359812
5.57873e-05
0.000194596
0.000321926
0.000418921
0.000496271
0.000559304
0.000612527
0.000666817
0.000718011
0.000769981
0.000817906
0.00086435
0.000909061
0.000958742
0.00101109
0.00104844
0.00106092
0.00102137
0.000749637
0.000490861
0.00013205
0.00036647
0.000453815
0.000519246
0.000577625
0.000624289
0.00066506
0.000706831
0.000746936
0.00078502
0.000821373
0.000858054
0.000898378
0.000951135
0.00101696
0.00108683
0.00111875
0.00112108
0.000898139
0.000575714
0.000196457
0.00047281
0.00053073
0.000561917
0.000599979
0.000629676
0.000662373
0.000694353
0.000719588
0.000737738
0.000752099
0.000775042
0.000816574
0.000880883
0.000976561
0.00110004
0.00119066
0.00121166
0.00103422
0.000641657
0.000245693
0.000533389
0.000558422
0.000568625
0.000597042
0.000621327
0.00064116
0.000648013
0.000647962
0.000644798
0.000646841
0.000663091
0.000702206
0.000774835
0.000894985
0.00106899
0.00124672
0.00131386
0.00117973
0.000694864
0.000261636
0.000536088
0.000556577
0.000564307
0.00058615
0.000595861
0.000596613
0.000585675
0.000569993
0.000556799
0.000551915
0.000559359
0.000592844
0.000664244
0.000793515
0.000999238
0.0012674
0.00140976
0.00132153
0.00073798
0.000258863
0.000527853
0.000547759
0.000552873
0.000563171
0.000563953
0.000553472
0.000532673
0.000509191
0.000490003
0.000481622
0.000483048
0.000508996
0.000572268
0.00069833
0.000922216
0.00125618
0.00149565
0.00147275
0.000773067
0.00024981
0.000507181
0.000528998
0.00053407
0.000539887
0.00053589
0.000519501
0.000494576
0.000468574
0.000446918
0.00043572
0.000434111
0.000452289
0.00050376
0.000615248
0.000833863
0.00120102
0.00156313
0.00160777
0.000799044
0.000230523
0.00048396
0.000508301
0.000515118
0.000519468
0.000513284
0.000495076
0.000469796
0.000444151
0.000422738
0.000409589
0.000406179
0.000418865
0.000459766
0.000556493
0.000761475
0.00113882
0.00160231
0.00174321
0.000819017
0.000208254
0.00045205
0.000484773
0.000495455
0.000500858
0.000495133
0.000478077
0.00045449
0.000430768
0.000410793
0.000397406
0.00039356
0.000403476
0.000437631
0.000520554
0.000708035
0.00108287
0.00161895
0.00186266
0.000829421
0.000189618
0.000423181
0.000466163
0.000479423
0.000484952
0.000480409
0.000466062
0.000445119
0.000424005
0.000406037
0.000393676
0.000390532
0.00039908
0.000429724
0.000504113
0.00067397
0.00103433
0.00162387
0.00196861
0.000834103
0.000168741
0.000384783
0.000442946
0.000461838
0.000470135
0.000467472
0.000457042
0.000439144
0.00042102
0.000405772
0.00039495
0.000393483
0.00040169
0.000430048
0.000499782
0.000658967
0.000993142
0.00162286
0.00202813
0.000835016
0.000150601
0.00035864
0.000428937
0.000452687
0.000460134
0.000457786
0.000449892
0.000435913
0.000421281
0.000407981
0.000399416
0.000400423
0.000410396
0.000440184
0.000507906
0.000656796
0.000971535
0.00160792
0.00205035
0.000831349
0.000128187
0.000316041
0.000404267
0.000439873
0.000456174
0.000455973
0.0004507
0.00043854
0.000425048
0.000413579
0.000407885
0.000410719
0.000423646
0.000457171
0.000527569
0.0006751
0.000965968
0.0015899
0.00201644
0.000827133
0.000108361
0.000290014
0.000391131
0.000439051
0.000461907
0.000463524
0.000459274
0.000448925
0.000436343
0.000425682
0.000422675
0.000427355
0.000443877
0.000483638
0.000560887
0.000721291
0.000986307
0.00158118
0.00191625
0.000803489
8.18595e-05
0.000228157
0.000357593
0.000440311
0.000478604
0.000486983
0.000484044
0.000475668
0.000464248
0.000455263
0.000456311
0.000465325
0.000489612
0.000544591
0.000637308
0.000834953
0.00108483
0.00160082
0.00174875
0.00077101
5.92539e-05
0.000223562
0.000376089
0.000476884
0.000536383
0.000557121
0.000557836
0.000554992
0.000552026
0.000555155
0.000568679
0.000599679
0.000654656
0.000753112
0.00088873
0.00117216
0.00142506
0.00171563
0.00157359
0.000717682
7.58323e-05
0.000259866
0.000460576
0.000586252
0.000673814
0.000730026
0.000772197
0.000813166
0.000867835
0.000932302
0.00102395
0.00113755
0.00128986
0.00149152
0.00172307
0.00203406
0.00206062
0.0019018
0.00148712
0.000642587
5.61928e-05
9.06008e-05
0.000167171
0.000242351
0.000302705
0.000347861
0.000378307
0.000402247
0.000418779
0.000437168
0.000449661
0.00047052
0.00048479
0.000513169
0.000532988
0.000568213
0.000597513
0.000625728
0.000618194
0.000552229
)
;

boundaryField
{
    movingWall
    {
        type            kqRWallFunction;
        value           nonuniform List<scalar> 
20
(
5.61928e-05
9.06008e-05
0.000167171
0.000242351
0.000302705
0.000347861
0.000378307
0.000402247
0.000418779
0.000437168
0.000449661
0.00047052
0.00048479
0.000513169
0.000532988
0.000568213
0.000597513
0.000625728
0.000618194
0.000552229
)
;
    }
    fixedWalls
    {
        type            kqRWallFunction;
        value           nonuniform List<scalar> 
60
(
2.92111e-06
1.43465e-05
5.57873e-05
0.00013205
0.000196457
0.000245693
0.000261636
0.000258863
0.00024981
0.000230523
0.000208254
0.000189618
0.000168741
0.000150601
0.000128187
0.000108361
8.18595e-05
5.92539e-05
7.58323e-05
5.61928e-05
0.000160079
0.000359812
0.000490861
0.000575714
0.000641657
0.000694864
0.00073798
0.000773067
0.000799044
0.000819017
0.000829421
0.000834103
0.000835016
0.000831349
0.000827133
0.000803489
0.00077101
0.000717682
0.000642587
0.000552229
2.92111e-06
7.28947e-06
3.09649e-05
9.4959e-05
0.000163133
0.000214304
0.000255083
0.000292575
0.000326541
0.000359582
0.000391751
0.000424328
0.000458001
0.000485221
0.000498437
0.000501815
0.000472779
0.00037378
0.000224868
0.000160079
)
;
    }
    frontAndBack
    {
        type            empty;
    }
}


// ************************************************************************* //
