/*--------------------------------*- C++ -*----------------------------------*\
| =========                 |                                                 |
| \\      /  F ield         | OpenFOAM: The Open Source CFD Toolbox           |
|  \\    /   O peration     | Version:  5.0                                   |
|   \\  /    A nd           | Web:      www.OpenFOAM.org                      |
|    \\/     M anipulation  |                                                 |
\*---------------------------------------------------------------------------*/
FoamFile
{
    version     2.0;
    format      ascii;
    class       volScalarField;
    location    "5";
    object      nut;
}
// * * * * * * * * * * * * * * * * * * * * * * * * * * * * * * * * * * * * * //

dimensions      [0 2 -1 0 0 0 0];

internalField   nonuniform List<scalar> 
400
(
8.2336e-08
2.05174e-07
8.71552e-07
2.67303e-06
4.59199e-06
6.03233e-06
7.17991e-06
8.23524e-06
9.19105e-06
1.01211e-05
1.10264e-05
1.19434e-05
1.2891e-05
1.36569e-05
1.40287e-05
1.41237e-05
1.33062e-05
1.05204e-05
6.32927e-06
4.50569e-06
4.04105e-07
2.34819e-06
4.12216e-06
8.46539e-06
1.28511e-05
1.82812e-05
2.29119e-05
2.79217e-05
3.26507e-05
3.6827e-05
4.03365e-05
4.30131e-05
4.45917e-05
4.52632e-05
4.52071e-05
4.28916e-05
4.14022e-05
3.38476e-05
1.83207e-05
1.01252e-05
1.57096e-06
8.42234e-06
1.43826e-05
2.13902e-05
2.87317e-05
3.54823e-05
4.17281e-05
4.71909e-05
5.10684e-05
5.41493e-05
5.60395e-05
5.71909e-05
5.76054e-05
5.76567e-05
5.70692e-05
5.41812e-05
5.0053e-05
4.45406e-05
2.53818e-05
1.38106e-05
3.71631e-06
1.80518e-05
2.52623e-05
3.30114e-05
4.04626e-05
4.7371e-05
5.27075e-05
5.66145e-05
5.97409e-05
6.22066e-05
6.42722e-05
6.54884e-05
6.55982e-05
6.55067e-05
6.46972e-05
6.22638e-05
5.61406e-05
5.27942e-05
3.39071e-05
1.61967e-05
5.5275e-06
2.56782e-05
3.41852e-05
4.03449e-05
4.78636e-05
5.35051e-05
5.90245e-05
6.33211e-05
6.67831e-05
6.87317e-05
6.90366e-05
6.89562e-05
6.91938e-05
6.93028e-05
6.94801e-05
6.9036e-05
6.29905e-05
5.72579e-05
4.0961e-05
1.80508e-05
6.91243e-06
3.12469e-05
3.90392e-05
4.53696e-05
5.32126e-05
5.96852e-05
6.51031e-05
6.79844e-05
6.99901e-05
7.03114e-05
7.08474e-05
7.07157e-05
7.05352e-05
7.0524e-05
7.12168e-05
7.24017e-05
6.9307e-05
6.1865e-05
4.75909e-05
1.95469e-05
7.35972e-06
3.23486e-05
4.18398e-05
4.96299e-05
5.78914e-05
6.34895e-05
6.76123e-05
6.99442e-05
7.17424e-05
7.27014e-05
7.32427e-05
7.341e-05
7.2587e-05
7.17034e-05
7.17679e-05
7.32798e-05
7.4228e-05
6.57859e-05
5.31409e-05
2.0759e-05
7.28152e-06
3.34027e-05
4.45458e-05
5.28051e-05
6.00411e-05
6.54033e-05
6.92809e-05
7.18985e-05
7.42907e-05
7.62406e-05
7.74464e-05
7.81857e-05
7.70185e-05
7.47713e-05
7.32606e-05
7.45908e-05
7.81425e-05
6.96402e-05
5.8262e-05
2.17453e-05
7.02664e-06
3.38053e-05
4.56798e-05
5.42188e-05
6.12373e-05
6.66971e-05
7.07316e-05
7.39662e-05
7.71995e-05
8.02355e-05
8.2486e-05
8.3626e-05
8.2753e-05
7.93844e-05
7.52767e-05
7.42252e-05
7.78088e-05
7.39327e-05
6.21142e-05
2.24753e-05
6.4837e-06
3.36197e-05
4.59588e-05
5.47554e-05
6.18323e-05
6.74426e-05
7.1818e-05
7.56564e-05
7.95164e-05
8.31633e-05
8.58453e-05
8.7114e-05
8.64588e-05
8.34994e-05
7.87049e-05
7.50457e-05
7.66691e-05
7.68362e-05
6.56266e-05
2.30364e-05
5.85733e-06
3.19716e-05
4.52058e-05
5.44506e-05
6.17973e-05
6.76316e-05
7.23344e-05
7.64575e-05
8.05037e-05
8.41425e-05
8.68262e-05
8.81017e-05
8.79066e-05
8.60568e-05
8.16292e-05
7.68831e-05
7.66433e-05
7.83222e-05
6.84045e-05
2.33279e-05
5.33313e-06
2.97194e-05
4.41835e-05
5.36495e-05
6.09541e-05
6.69577e-05
7.20333e-05
7.61926e-05
7.9862e-05
8.30798e-05
8.57359e-05
8.74148e-05
8.777e-05
8.6855e-05
8.3418e-05
7.82446e-05
7.71154e-05
7.95712e-05
7.08077e-05
2.34589e-05
4.74602e-06
2.60906e-05
4.16632e-05
5.20036e-05
5.97894e-05
6.58056e-05
7.09463e-05
7.4541e-05
7.80774e-05
8.13681e-05
8.38746e-05
8.55235e-05
8.62376e-05
8.65627e-05
8.42135e-05
7.92142e-05
7.62495e-05
8.03977e-05
7.19817e-05
2.34841e-05
4.2358e-06
2.33629e-05
3.89537e-05
4.98724e-05
5.72166e-05
6.29756e-05
6.82837e-05
7.23864e-05
7.59878e-05
7.86297e-05
8.10574e-05
8.26791e-05
8.38642e-05
8.50418e-05
8.41873e-05
7.97345e-05
7.54386e-05
7.96946e-05
7.23699e-05
2.33796e-05
3.6057e-06
1.91556e-05
3.43446e-05
4.62033e-05
5.5024e-05
6.09682e-05
6.64393e-05
7.03002e-05
7.31833e-05
7.5398e-05
7.80965e-05
7.91505e-05
8.07632e-05
8.23188e-05
8.20852e-05
7.91569e-05
7.48039e-05
7.81328e-05
7.04699e-05
2.32606e-05
3.04808e-06
1.67134e-05
3.13868e-05
4.33026e-05
5.27132e-05
5.85799e-05
6.37617e-05
6.75142e-05
7.00061e-05
7.19274e-05
7.42363e-05
7.50625e-05
7.63014e-05
7.74633e-05
7.6869e-05
7.60485e-05
7.12312e-05
7.53327e-05
6.75427e-05
2.25938e-05
2.30365e-06
1.19229e-05
2.61347e-05
4.00658e-05
4.95696e-05
5.56478e-05
6.02892e-05
6.38521e-05
6.57999e-05
6.71967e-05
6.7924e-05
6.83223e-05
6.8618e-05
6.92648e-05
6.79167e-05
6.99796e-05
6.70103e-05
7.03469e-05
6.23818e-05
2.16794e-05
1.66717e-06
1.21545e-05
2.5782e-05
3.75532e-05
4.70569e-05
5.22596e-05
5.56816e-05
5.83575e-05
5.92981e-05
5.92498e-05
5.89965e-05
5.86683e-05
5.85018e-05
6.00927e-05
6.08643e-05
6.55383e-05
6.76619e-05
6.5673e-05
5.36168e-05
2.01782e-05
2.13191e-06
1.47916e-05
2.62024e-05
3.43608e-05
4.12027e-05
4.60406e-05
4.92698e-05
5.18434e-05
5.3984e-05
5.54818e-05
5.76307e-05
5.96325e-05
6.29588e-05
6.63789e-05
7.06349e-05
7.57997e-05
7.13991e-05
6.46111e-05
4.75375e-05
1.80657e-05
1.57979e-06
2.54681e-06
4.69911e-06
6.81207e-06
8.50855e-06
9.77787e-06
1.06331e-05
1.13061e-05
1.17701e-05
1.22874e-05
1.2638e-05
1.32248e-05
1.36254e-05
1.44236e-05
1.49801e-05
1.59706e-05
1.67943e-05
1.75884e-05
1.73769e-05
1.55229e-05
)
;

boundaryField
{
    movingWall
    {
        type            nutkWallFunction;
        Cmu             0.09;
        kappa           0.41;
        E               9.8;
        value           uniform 0;
    }
    fixedWalls
    {
        type            nutkWallFunction;
        Cmu             0.09;
        kappa           0.41;
        E               9.8;
        value           uniform 0;
    }
    frontAndBack
    {
        type            empty;
    }
}


// ************************************************************************* //
