/*--------------------------------*- C++ -*----------------------------------*\
| =========                 |                                                 |
| \\      /  F ield         | OpenFOAM: The Open Source CFD Toolbox           |
|  \\    /   O peration     | Version:  5.0                                   |
|   \\  /    A nd           | Web:      www.OpenFOAM.org                      |
|    \\/     M anipulation  |                                                 |
\*---------------------------------------------------------------------------*/
FoamFile
{
    version     2.0;
    format      ascii;
    class       volScalarField;
    location    "5";
    object      p;
}
// * * * * * * * * * * * * * * * * * * * * * * * * * * * * * * * * * * * * * //

dimensions      [0 2 -2 0 0 0 0];

internalField   nonuniform List<scalar> 
400
(
4.28207e-08
-6.58136e-05
-0.000160294
-0.000173386
-0.000462225
-0.00123374
-0.00233037
-0.00348519
-0.00448445
-0.00518714
-0.00550422
-0.00534737
-0.00467474
-0.00346228
-0.00170179
0.000513966
0.00293248
0.00506123
0.00635741
0.006605
2.71142e-05
-2.56236e-05
-0.000113904
-0.00039536
-0.000964132
-0.00187137
-0.00297618
-0.00408309
-0.00503311
-0.00571936
-0.00605171
-0.00596672
-0.00542318
-0.0043568
-0.00275805
-0.000675339
0.00168821
0.00392277
0.00549506
0.0061175
0.000214153
1.94108e-05
-0.000322033
-0.000908585
-0.00178632
-0.00286363
-0.00400322
-0.00507782
-0.00599777
-0.00666035
-0.00698055
-0.00692005
-0.00645811
-0.00556481
-0.00421635
-0.00242788
-0.000301916
0.00190523
0.00376056
0.00469374
0.000190241
-0.000153813
-0.000791413
-0.00171501
-0.00285224
-0.00406372
-0.00523934
-0.00628355
-0.00711828
-0.00768769
-0.00796694
-0.00793433
-0.00756413
-0.00683821
-0.00573747
-0.00425947
-0.00244672
-0.000437058
0.0014478
0.00245198
-0.000225478
-0.000703589
-0.00156855
-0.00272189
-0.00399715
-0.00525476
-0.00640301
-0.00737103
-0.00811556
-0.00861334
-0.00885707
-0.00883972
-0.00854798
-0.00797335
-0.00710063
-0.00591966
-0.00444139
-0.00272673
-0.000989719
-4.45567e-05
-0.00103596
-0.00159276
-0.00256907
-0.00379385
-0.00508795
-0.00631433
-0.00739321
-0.00827528
-0.00893985
-0.00937876
-0.00959239
-0.00958274
-0.0093513
-0.00889704
-0.00821191
-0.00728411
-0.00611009
-0.00471858
-0.0033043
-0.00240812
-0.00206596
-0.00264134
-0.00361672
-0.00480418
-0.00604248
-0.007194
-0.00818827
-0.00898861
-0.00958462
-0.00997537
-0.0101659
-0.0101632
-0.00997581
-0.00961033
-0.00906677
-0.00833672
-0.00741377
-0.00631161
-0.00522542
-0.00442919
-0.00308209
-0.00363321
-0.00454629
-0.00565518
-0.00680881
-0.00787324
-0.008786
-0.00951679
-0.0100591
-0.0104147
-0.0105902
-0.0105943
-0.0104382
-0.0101339
-0.00968951
-0.00910287
-0.00837067
-0.0075036
-0.00669502
-0.00599365
-0.00391392
-0.00442743
-0.00525689
-0.00628564
-0.00735506
-0.00834156
-0.00918867
-0.00986843
-0.0103744
-0.0107082
-0.0108757
-0.010885
-0.0107481
-0.0104804
-0.0100973
-0.00960556
-0.00901022
-0.00830785
-0.00770155
-0.00708939
-0.00448798
-0.0049401
-0.00569693
-0.00666366
-0.00766454
-0.00859434
-0.00939857
-0.0100485
-0.0105354
-0.0108592
-0.0110238
-0.0110359
-0.0109069
-0.0106541
-0.0102991
-0.00985809
-0.00935969
-0.00874638
-0.00829569
-0.00771675
-0.0047679
-0.00516186
-0.00586085
-0.00677876
-0.00773231
-0.00863036
-0.00941578
-0.0100568
-0.0105409
-0.010865
-0.0110306
-0.0110428
-0.0109119
-0.0106562
-0.0103016
-0.00986894
-0.00943938
-0.00882632
-0.00852283
-0.00788936
-0.00474799
-0.00510215
-0.00575677
-0.00663409
-0.00756359
-0.00845188
-0.00923986
-0.00989097
-0.0103873
-0.0107215
-0.010892
-0.0109019
-0.0107605
-0.0104865
-0.0101096
-0.00966577
-0.00923611
-0.00856911
-0.00844841
-0.00760186
-0.00447964
-0.00480975
-0.00542445
-0.00625284
-0.00717032
-0.00806474
-0.00887283
-0.00955101
-0.0100738
-0.010428
-0.0106083
-0.010615
-0.0104562
-0.0101514
-0.00973417
-0.00924707
-0.00876659
-0.00803347
-0.00808038
-0.00686496
-0.00404652
-0.0043381
-0.00489882
-0.00566902
-0.00656777
-0.00747739
-0.00832073
-0.00904224
-0.00960607
-0.00999153
-0.0101882
-0.0101938
-0.0100135
-0.00966816
-0.00919463
-0.00863561
-0.0080754
-0.00728688
-0.00735729
-0.00571789
-0.00356394
-0.00378272
-0.00423964
-0.00492513
-0.00578861
-0.00671483
-0.00760467
-0.00838393
-0.00900329
-0.00943238
-0.00965456
-0.00966328
-0.00946432
-0.0090731
-0.00853041
-0.00787443
-0.00720412
-0.00630564
-0.00627314
-0.00420162
-0.00313746
-0.00320176
-0.00348684
-0.00405164
-0.00486746
-0.00581134
-0.0067574
-0.00760844
-0.00829892
-0.00878673
-0.00904837
-0.00907217
-0.00886386
-0.0084285
-0.00780759
-0.00702435
-0.0061885
-0.0050803
-0.00479876
-0.00211518
-0.00286337
-0.00267575
-0.00270975
-0.00311873
-0.00387687
-0.00483901
-0.00584818
-0.00678231
-0.00755778
-0.00812004
-0.00843809
-0.00849387
-0.00828914
-0.00781678
-0.00710705
-0.00614957
-0.00504102
-0.00354607
-0.00266294
0.0013925
-0.00273577
-0.00217377
-0.00193438
-0.00218393
-0.00288579
-0.00386817
-0.00494534
-0.00597315
-0.00684832
-0.00750229
-0.00789439
-0.00799665
-0.0078025
-0.00729373
-0.00649034
-0.00530544
-0.00378874
-0.00155039
0.00077435
0.00816953
-0.00275354
-0.00174366
-0.00130229
-0.00143155
-0.00208816
-0.00309123
-0.00423269
-0.00534823
-0.00631614
-0.00705959
-0.00752771
-0.00769457
-0.00753508
-0.00702317
-0.0060947
-0.00464835
-0.0025694
0.00110909
0.00660835
0.0194161
-0.00337552
-0.000511471
3.47812e-05
-0.000283351
-0.00101413
-0.00206879
-0.00329609
-0.0045133
-0.0055805
-0.00640508
-0.00693433
-0.00713036
-0.00696598
-0.00640241
-0.00538805
-0.00373996
-0.00071169
0.00532237
0.0162643
0.0336239
)
;

boundaryField
{
    movingWall
    {
        type            zeroGradient;
    }
    fixedWalls
    {
        type            zeroGradient;
    }
    frontAndBack
    {
        type            empty;
    }
}


// ************************************************************************* //
