/*--------------------------------*- C++ -*----------------------------------*\
| =========                 |                                                 |
| \\      /  F ield         | OpenFOAM: The Open Source CFD Toolbox           |
|  \\    /   O peration     | Version:  5.0                                   |
|   \\  /    A nd           | Web:      www.OpenFOAM.org                      |
|    \\/     M anipulation  |                                                 |
\*---------------------------------------------------------------------------*/
FoamFile
{
    version     2.0;
    format      ascii;
    class       surfaceScalarField;
    location    "5";
    object      phi;
}
// * * * * * * * * * * * * * * * * * * * * * * * * * * * * * * * * * * * * * //

dimensions      [0 3 -1 0 0 0 0];

internalField   nonuniform List<scalar> 
760
(
1.82481e-07
-1.82485e-07
9.42399e-08
8.82409e-08
-3.59802e-07
4.54041e-07
-1.28875e-06
9.28947e-07
-2.50921e-06
1.22046e-06
-3.66466e-06
1.15545e-06
-4.66982e-06
1.00515e-06
-5.49118e-06
8.21361e-07
-6.12144e-06
6.30263e-07
-6.56155e-06
4.40113e-07
-6.82604e-06
2.64485e-07
-6.91243e-06
8.63875e-08
-6.80026e-06
-1.12169e-07
-6.48917e-06
-3.11089e-07
-5.92519e-06
-5.63977e-07
-5.07335e-06
-8.51846e-07
-3.89376e-06
-1.17959e-06
-2.42827e-06
-1.46549e-06
-8.98088e-07
-1.53018e-06
-8.98088e-07
-1.78353e-07
-4.13207e-09
-8.32662e-07
7.4255e-07
-1.92489e-06
1.54627e-06
-3.11073e-06
2.11478e-06
-4.05583e-06
2.16556e-06
-4.9008e-06
2.00043e-06
-5.6116e-06
1.71595e-06
-6.18351e-06
1.39327e-06
-6.62388e-06
1.07063e-06
-6.93759e-06
7.5383e-07
-7.1058e-06
4.32694e-07
-7.1146e-06
9.51889e-08
-6.98215e-06
-2.4462e-07
-6.6749e-06
-6.1834e-07
-6.17939e-06
-1.05948e-06
-5.45112e-06
-1.58012e-06
-4.45079e-06
-2.17992e-06
-3.12695e-06
-2.78933e-06
-1.52343e-06
-3.1337e-06
-2.42152e-06
-7.01288e-07
6.97156e-07
-1.74614e-06
1.7874e-06
-2.80087e-06
2.601e-06
-3.65819e-06
2.9721e-06
-4.37482e-06
2.88219e-06
-4.97182e-06
2.59743e-06
-5.45692e-06
2.20105e-06
-5.82831e-06
1.76466e-06
-6.07988e-06
1.3222e-06
-6.21944e-06
8.93384e-07
-6.25852e-06
4.71776e-07
-6.20569e-06
4.23571e-08
-6.0601e-06
-3.90209e-07
-5.80073e-06
-8.77704e-07
-5.40764e-06
-1.45257e-06
-4.84902e-06
-2.13874e-06
-4.08329e-06
-2.94566e-06
-3.05029e-06
-3.82232e-06
-1.68317e-06
-4.50082e-06
-4.10469e-06
-9.59496e-07
1.65665e-06
-1.99302e-06
2.82092e-06
-2.86775e-06
3.47573e-06
-3.52606e-06
3.63042e-06
-4.04454e-06
3.40067e-06
-4.44428e-06
2.99717e-06
-4.73747e-06
2.49424e-06
-4.93807e-06
1.96527e-06
-5.06055e-06
1.44468e-06
-5.11359e-06
9.46419e-07
-5.10435e-06
4.62533e-07
-5.03661e-06
-2.53737e-08
-4.89964e-06
-5.27181e-07
-4.68818e-06
-1.08917e-06
-4.39119e-06
-1.74957e-06
-3.98154e-06
-2.54839e-06
-3.4172e-06
-3.50999e-06
-2.63242e-06
-4.60711e-06
-1.51184e-06
-5.62139e-06
-5.61653e-06
-9.58513e-07
2.61517e-06
-1.85328e-06
3.71569e-06
-2.54802e-06
4.17048e-06
-3.05479e-06
4.13718e-06
-3.42779e-06
3.77368e-06
-3.69059e-06
3.25996e-06
-3.86699e-06
2.67064e-06
-3.97585e-06
2.07412e-06
-4.02921e-06
1.49804e-06
-4.03301e-06
9.50228e-07
-3.99146e-06
4.2098e-07
-3.91065e-06
-1.06181e-07
-3.7842e-06
-6.53634e-07
-3.61486e-06
-1.2585e-06
-3.39713e-06
-1.9673e-06
-3.11134e-06
-2.83418e-06
-2.71506e-06
-3.90627e-06
-2.1369e-06
-5.18527e-06
-1.26994e-06
-6.48836e-06
-6.88647e-06
-8.14839e-07
3.43e-06
-1.53628e-06
4.43713e-06
-2.07228e-06
4.70648e-06
-2.457e-06
4.5219e-06
-2.72597e-06
4.04265e-06
-2.90291e-06
3.4369e-06
-3.01308e-06
2.78081e-06
-3.07296e-06
2.13401e-06
-3.09202e-06
1.5171e-06
-3.07445e-06
9.32658e-07
-3.02324e-06
3.69768e-07
-2.94133e-06
-1.88092e-07
-2.83012e-06
-7.64847e-07
-2.69379e-06
-1.39483e-06
-2.53366e-06
-2.12743e-06
-2.34081e-06
-3.02703e-06
-2.08768e-06
-4.1594e-06
-1.70028e-06
-5.57267e-06
-1.02807e-06
-7.16057e-06
-7.91453e-06
-6.30241e-07
4.06025e-06
-1.16252e-06
4.96942e-06
-1.56041e-06
5.10437e-06
-1.84078e-06
4.80227e-06
-2.03201e-06
4.23387e-06
-2.15431e-06
3.5592e-06
-2.22847e-06
2.85497e-06
-2.26665e-06
2.17219e-06
-2.27561e-06
1.52606e-06
-2.25777e-06
9.14817e-07
-2.21399e-06
3.25987e-07
-2.14468e-06
-2.57404e-07
-2.05235e-06
-8.57174e-07
-1.94338e-06
-1.5038e-06
-1.82538e-06
-2.24544e-06
-1.69763e-06
-3.15477e-06
-1.54081e-06
-4.31622e-06
-1.29242e-06
-5.82106e-06
-8.49499e-07
-7.6035e-06
-8.76403e-06
-4.20116e-07
4.48036e-06
-7.87406e-07
5.33671e-06
-1.06008e-06
5.37704e-06
-1.25109e-06
4.99328e-06
-1.38169e-06
4.36448e-06
-1.4667e-06
3.6442e-06
-1.52097e-06
2.90924e-06
-1.55222e-06
2.20344e-06
-1.56413e-06
1.53797e-06
-1.55699e-06
9.07675e-07
-1.52956e-06
2.98555e-07
-1.48069e-06
-3.06275e-07
-1.41191e-06
-9.25946e-07
-1.33034e-06
-1.58537e-06
-1.24872e-06
-2.32706e-06
-1.17577e-06
-3.22772e-06
-1.0984e-06
-4.39359e-06
-9.5872e-07
-5.96074e-06
-6.65132e-07
-7.89709e-06
-9.42917e-06
-2.28166e-07
4.70853e-06
-4.36012e-07
5.54455e-06
-5.91362e-07
5.53239e-06
-7.02284e-07
5.1042e-06
-7.8062e-07
4.44281e-06
-8.35502e-07
3.69909e-06
-8.75575e-07
2.94932e-06
-9.04223e-07
2.23209e-06
-9.22219e-07
1.55597e-06
-9.28134e-07
9.1359e-07
-9.19622e-07
2.90043e-07
-8.94863e-07
-3.31035e-07
-8.54754e-07
-9.66054e-07
-8.05748e-07
-1.63438e-06
-7.62044e-07
-2.37076e-06
-7.3928e-07
-3.25049e-06
-7.31845e-07
-4.40102e-06
-6.87426e-07
-6.00516e-06
-5.38824e-07
-8.04569e-06
-9.96799e-06
-3.50368e-08
4.74356e-06
-1.10443e-07
5.61996e-06
-1.58465e-07
5.58041e-06
-1.93885e-07
5.13962e-06
-2.20651e-07
4.46958e-06
-2.44959e-07
3.72339e-06
-2.6919e-07
2.97355e-06
-2.92911e-07
2.25581e-06
-3.14431e-07
1.57749e-06
-3.31348e-07
9.30507e-07
-3.41254e-07
2.99948e-07
-3.42479e-07
-3.29809e-07
-3.35779e-07
-9.72754e-07
-3.2694e-07
-1.64322e-06
-3.29711e-07
-2.36799e-06
-3.58963e-07
-3.22123e-06
-4.25062e-07
-4.33492e-06
-4.67351e-07
-5.96287e-06
-4.20466e-07
-8.09257e-06
-1.03885e-05
1.38916e-07
4.60465e-06
2.03627e-07
5.55525e-06
2.61697e-07
5.52234e-06
2.94169e-07
5.10715e-06
3.15728e-07
4.44802e-06
3.23991e-07
3.71513e-06
3.20049e-07
2.97749e-06
3.06582e-07
2.26928e-06
2.86407e-07
1.59766e-06
2.61962e-07
9.54953e-07
2.34984e-07
3.26926e-07
2.06447e-07
-3.01272e-07
1.75565e-07
-9.41872e-07
1.37736e-07
-1.60539e-06
8.12147e-08
-2.31147e-06
-1.89936e-08
-3.12103e-06
-1.46764e-07
-4.20715e-06
-2.79678e-07
-5.82996e-06
-3.39909e-07
-8.03234e-06
-1.07284e-05
2.99482e-07
4.30517e-06
4.92579e-07
5.36215e-06
6.49665e-07
5.36525e-06
7.58608e-07
4.99821e-06
8.35535e-07
4.37109e-06
8.83937e-07
3.66673e-06
9.07935e-07
2.95349e-06
9.11761e-07
2.26545e-06
8.98712e-07
1.61071e-06
8.70698e-07
9.82966e-07
8.28321e-07
3.69303e-07
7.71356e-07
-2.44308e-07
6.98646e-07
-8.69161e-07
6.068e-07
-1.51354e-06
4.86748e-07
-2.19142e-06
3.26247e-07
-2.96053e-06
1.17832e-07
-3.99874e-06
-1.15584e-07
-5.59654e-06
-2.58747e-07
-7.88918e-06
-1.09871e-05
4.51947e-07
3.85322e-06
7.69724e-07
5.04437e-06
1.01598e-06
5.11899e-06
1.20471e-06
4.80948e-06
1.34428e-06
4.23152e-06
1.44192e-06
3.56909e-06
1.50309e-06
2.89233e-06
1.5325e-06
2.23603e-06
1.53326e-06
1.60995e-06
1.50652e-06
1.00971e-06
1.45146e-06
4.24363e-07
1.36611e-06
-1.58959e-07
1.24906e-06
-7.52112e-07
1.09782e-06
-1.3623e-06
9.08141e-07
-2.00174e-06
6.70021e-07
-2.7224e-06
3.65575e-07
-3.69429e-06
2.43039e-08
-5.25527e-06
-1.71711e-07
-7.69316e-06
-1.11588e-05
5.73512e-07
3.27971e-06
9.97701e-07
4.62018e-06
1.33455e-06
4.78214e-06
1.61668e-06
4.52736e-06
1.83429e-06
4.0139e-06
1.99585e-06
3.40753e-06
2.10678e-06
2.78139e-06
2.17196e-06
2.17085e-06
2.19431e-06
1.5876e-06
2.17445e-06
1.02957e-06
2.11054e-06
4.88272e-07
1.99782e-06
-4.62365e-08
1.83583e-06
-5.90122e-07
1.62207e-06
-1.14854e-06
1.35651e-06
-1.73618e-06
1.0343e-06
-2.40019e-06
6.41455e-07
-3.30145e-06
2.44553e-07
-4.85837e-06
-1.39299e-08
-7.43468e-06
-1.11728e-05
6.6287e-07
2.61684e-06
1.18714e-06
4.09591e-06
1.61922e-06
4.35007e-06
1.9963e-06
4.15027e-06
2.30247e-06
3.70774e-06
2.54017e-06
3.16983e-06
2.71283e-06
2.60874e-06
2.82444e-06
2.05923e-06
2.87721e-06
1.53484e-06
2.87099e-06
1.03579e-06
2.8029e-06
5.5636e-07
2.66858e-06
8.809e-08
2.46349e-06
-3.85037e-07
2.18822e-06
-8.73268e-07
1.84432e-06
-1.39228e-06
1.43553e-06
-1.9914e-06
9.53528e-07
-2.81945e-06
4.75455e-07
-4.3803e-06
1.19011e-07
-7.07824e-06
-1.10537e-05
6.46258e-07
1.97058e-06
1.23879e-06
3.50338e-06
1.78707e-06
3.80178e-06
2.28344e-06
3.65391e-06
2.70333e-06
3.28785e-06
3.0405e-06
2.83266e-06
3.29487e-06
2.35437e-06
3.46901e-06
1.88509e-06
3.56467e-06
1.43918e-06
3.5818e-06
1.01866e-06
3.51798e-06
6.20189e-07
3.37152e-06
2.34544e-07
3.13303e-06
-1.46545e-07
2.80699e-06
-5.47224e-07
2.39283e-06
-9.78124e-07
1.90336e-06
-1.50192e-06
1.33536e-06
-2.25145e-06
7.66311e-07
-3.81125e-06
2.96736e-07
-6.60866e-06
-1.0757e-05
5.4737e-07
1.42321e-06
1.21635e-06
2.8344e-06
1.88582e-06
3.13231e-06
2.50519e-06
3.03454e-06
3.04356e-06
2.74947e-06
3.48823e-06
2.38799e-06
3.83354e-06
2.00906e-06
4.0792e-06
1.63944e-06
4.2275e-06
1.29087e-06
4.27963e-06
9.66526e-07
4.23572e-06
6.64096e-07
4.09604e-06
3.74228e-07
3.85276e-06
9.67326e-08
3.50983e-06
-2.04287e-07
3.05904e-06
-5.27339e-07
2.51592e-06
-9.58803e-07
1.88377e-06
-1.6193e-06
1.21406e-06
-3.14154e-06
5.63747e-07
-5.95835e-06
-1.01933e-05
8.29642e-08
1.34025e-06
8.22086e-07
2.09528e-06
1.66336e-06
2.29103e-06
2.46396e-06
2.23394e-06
3.1669e-06
2.04654e-06
3.75353e-06
1.80136e-06
4.22224e-06
1.54035e-06
4.573e-06
1.28868e-06
4.81159e-06
1.05228e-06
4.94197e-06
8.3615e-07
4.9684e-06
6.37662e-07
4.8926e-06
4.50025e-07
4.71571e-06
2.73629e-07
4.44832e-06
6.31045e-08
4.04996e-06
-1.28985e-07
3.54102e-06
-4.49865e-07
2.88678e-06
-9.65059e-07
2.11933e-06
-2.37409e-06
1.09209e-06
-4.93111e-06
-9.10117e-06
-5.61274e-07
1.90152e-06
3.2483e-07
1.20918e-06
1.43898e-06
1.17688e-06
2.48358e-06
1.18934e-06
3.39763e-06
1.13249e-06
4.17587e-06
1.02311e-06
4.8216e-06
8.94627e-07
5.33523e-06
7.75045e-07
5.72844e-06
6.59071e-07
6.00609e-06
5.58504e-07
6.18595e-06
4.57803e-07
6.26401e-06
3.71962e-07
6.25859e-06
2.79052e-07
6.13297e-06
1.88723e-07
5.91817e-06
8.58162e-08
5.58849e-06
-1.20185e-07
5.06465e-06
-4.41225e-07
4.2398e-06
-1.54923e-06
2.51188e-06
-3.20319e-06
-6.58929e-06
1.90152e-06
3.1107e-06
4.28758e-06
5.47692e-06
6.60941e-06
7.63252e-06
8.52714e-06
9.30219e-06
9.96126e-06
1.05198e-05
1.09776e-05
1.13495e-05
1.16286e-05
1.18173e-05
1.19031e-05
1.17829e-05
1.13417e-05
9.79248e-06
6.58929e-06
)
;

boundaryField
{
    movingWall
    {
        type            calculated;
        value           uniform 0;
    }
    fixedWalls
    {
        type            calculated;
        value           uniform 0;
    }
    frontAndBack
    {
        type            empty;
        value           nonuniform 0();
    }
}


// ************************************************************************* //
