/*--------------------------------*- C++ -*----------------------------------*\
| =========                 |                                                 |
| \\      /  F ield         | OpenFOAM: The Open Source CFD Toolbox           |
|  \\    /   O peration     | Version:  5.0                                   |
|   \\  /    A nd           | Web:      www.OpenFOAM.org                      |
|    \\/     M anipulation  |                                                 |
\*---------------------------------------------------------------------------*/
FoamFile
{
    version     2.0;
    format      ascii;
    class       volVectorField;
    location    "5";
    object      U;
}
// * * * * * * * * * * * * * * * * * * * * * * * * * * * * * * * * * * * * * //

dimensions      [0 1 -1 0 0 0 0];

internalField   nonuniform List<vector> 
400
(
(0.00193283 -0.00255035 0)
(0.00505129 -0.00125816 0)
(-0.00171058 0.000909765 0)
(-0.0111842 0.00511508 0)
(-0.0383843 0.0122622 0)
(-0.0641077 0.0115919 0)
(-0.0858622 0.0101692 0)
(-0.104062 0.00816819 0)
(-0.118007 0.00636846 0)
(-0.128517 0.0044378 0)
(-0.135283 0.00260213 0)
(-0.13838 0.000841783 0)
(-0.138597 -0.00178451 0)
(-0.133551 -0.00410735 0)
(-0.124547 -0.00720566 0)
(-0.109249 -0.00996714 0)
(-0.0886056 -0.0130077 0)
(-0.0620516 -0.0147987 0)
(-0.0325662 -0.0131366 0)
(-0.00688074 -0.0034895 0)
(-0.000279015 -0.0053934 0)
(-0.00705902 0.00501716 0)
(-0.0248599 0.0187636 0)
(-0.0507716 0.0329758 0)
(-0.0726945 0.0348418 0)
(-0.0915601 0.0324767 0)
(-0.106997 0.028113 0)
(-0.119439 0.0232152 0)
(-0.129067 0.0178322 0)
(-0.136814 0.0123282 0)
(-0.141372 0.00720552 0)
(-0.143327 0.00196583 0)
(-0.14196 -0.00365921 0)
(-0.137428 -0.0100489 0)
(-0.129071 -0.0177182 0)
(-0.116204 -0.0268787 0)
(-0.0983244 -0.0370022 0)
(-0.075342 -0.0459683 0)
(-0.0468779 -0.047886 0)
(-0.0166388 -0.029877 0)
(-0.00552376 0.00541138 0)
(-0.0231543 0.0262995 0)
(-0.0454023 0.0432311 0)
(-0.0658853 0.0515623 0)
(-0.0816769 0.0507382 0)
(-0.0949046 0.0460232 0)
(-0.105336 0.0389908 0)
(-0.113816 0.0311264 0)
(-0.120164 0.0234917 0)
(-0.123722 0.0162581 0)
(-0.125384 0.00880221 0)
(-0.12515 0.00120158 0)
(-0.123348 -0.00694231 0)
(-0.119275 -0.015923 0)
(-0.112626 -0.0264816 0)
(-0.102791 -0.0390132 0)
(-0.0890646 -0.0537081 0)
(-0.0709588 -0.0694437 0)
(-0.0469251 -0.0803897 0)
(-0.0201659 -0.0685715 0)
(-0.00923521 0.0238825 0)
(-0.0298467 0.0469598 0)
(-0.0500146 0.0615148 0)
(-0.0656109 0.0661558 0)
(-0.0768766 0.0629105 0)
(-0.0859968 0.0560442 0)
(-0.0926532 0.0470394 0)
(-0.0975211 0.0374482 0)
(-0.100482 0.0278105 0)
(-0.102151 0.0184085 0)
(-0.102569 0.00929274 0)
(-0.101802 0.00015586 0)
(-0.0998157 -0.00952343 0)
(-0.0963273 -0.0203209 0)
(-0.0912293 -0.0329973 0)
(-0.0840848 -0.0482233 0)
(-0.0740914 -0.066313 0)
(-0.060248 -0.0863696 0)
(-0.0405518 -0.103738 0)
(-0.0185985 -0.100897 0)
(-0.00999547 0.0425604 0)
(-0.0293442 0.0652749 0)
(-0.0458642 0.07645 0)
(-0.0576047 0.0776483 0)
(-0.0658623 0.0718708 0)
(-0.0720696 0.062793 0)
(-0.0761555 0.0519195 0)
(-0.0788814 0.0406532 0)
(-0.0803421 0.0296042 0)
(-0.0808836 0.019045 0)
(-0.0804887 0.00884977 0)
(-0.0792714 -0.00130381 0)
(-0.077216 -0.0119288 0)
(-0.0742709 -0.0237395 0)
(-0.0704088 -0.0376401 0)
(-0.0654042 -0.0546067 0)
(-0.0585972 -0.0754202 0)
(-0.048504 -0.0998699 0)
(-0.0329698 -0.123352 0)
(-0.0166285 -0.127871 0)
(-0.00856152 0.0597906 0)
(-0.0252129 0.0813279 0)
(-0.0376765 0.0885784 0)
(-0.0466821 0.0865988 0)
(-0.0527334 0.0783242 0)
(-0.0569628 0.0671873 0)
(-0.0595472 0.054727 0)
(-0.0611412 0.0422504 0)
(-0.0618427 0.0302676 0)
(-0.0618363 0.0189006 0)
(-0.0611244 0.0079398 0)
(-0.0597911 -0.00293931 0)
(-0.0578659 -0.0142022 0)
(-0.0553989 -0.0265918 0)
(-0.0524454 -0.041085 0)
(-0.0489385 -0.0588787 0)
(-0.044495 -0.0811309 0)
(-0.037737 -0.108381 0)
(-0.0274784 -0.13832 0)
(-0.0115913 -0.149956 0)
(-0.00698873 0.0744802 0)
(-0.0194306 0.0938963 0)
(-0.0284303 0.0980737 0)
(-0.0352057 0.0933484 0)
(-0.0394632 0.0829214 0)
(-0.0423621 0.0701161 0)
(-0.0440931 0.0564856 0)
(-0.0451296 0.0431518 0)
(-0.0455462 0.0304823 0)
(-0.0454419 0.0184877 0)
(-0.0448152 0.00693754 0)
(-0.0436789 -0.00449917 0)
(-0.0420555 -0.0162719 0)
(-0.0400362 -0.0290492 0)
(-0.0377641 -0.0438319 0)
(-0.0353078 -0.0620126 0)
(-0.0325109 -0.0850979 0)
(-0.0279498 -0.114532 0)
(-0.0221931 -0.148607 0)
(-0.00949868 -0.16809 0)
(-0.00464171 0.0854927 0)
(-0.0132313 0.103324 0)
(-0.0193614 0.105091 0)
(-0.024079 0.098167 0)
(-0.0268857 0.0861563 0)
(-0.0288423 0.0721624 0)
(-0.030053 0.057726 0)
(-0.0308397 0.0437956 0)
(-0.0312379 0.0306371 0)
(-0.0312817 0.0181824 0)
(-0.0309347 0.00616937 0)
(-0.0301664 -0.00573755 0)
(-0.0289728 -0.0179455 0)
(-0.027445 -0.0310101 0)
(-0.0257852 -0.0458572 0)
(-0.0241962 -0.064008 0)
(-0.0227698 -0.0873318 0)
(-0.0201054 -0.118195 0)
(-0.0178827 -0.155629 0)
(-0.0064353 -0.182662 0)
(-0.00274472 0.092352 0)
(-0.00722989 0.109138 0)
(-0.010933 0.109449 0)
(-0.0136342 0.10126 0)
(-0.0152107 0.0882741 0)
(-0.0164021 0.073562 0)
(-0.0172188 0.0586549 0)
(-0.0178554 0.0443728 0)
(-0.0183035 0.0309122 0)
(-0.0185456 0.0181455 0)
(-0.0185225 0.00578209 0)
(-0.0181819 -0.00650981 0)
(-0.0175078 -0.0190818 0)
(-0.0165784 -0.0323718 0)
(-0.0156067 -0.0471599 0)
(-0.0148468 -0.065005 0)
(-0.0147569 -0.0882183 0)
(-0.0135247 -0.12006 0)
(-0.0145638 -0.159842 0)
(-0.00484917 -0.194508 0)
(3.21973e-05 0.0953837 0)
(-0.00173615 0.112493 0)
(-0.00306701 0.11177 0)
(-0.00388263 0.102803 0)
(-0.00433413 0.0893886 0)
(-0.00478397 0.0743848 0)
(-0.00519016 0.0593121 0)
(-0.00563845 0.0449047 0)
(-0.00608142 0.0313133 0)
(-0.00646943 0.0183768 0)
(-0.00673908 0.00579283 0)
(-0.00683916 -0.00675949 0)
(-0.00675356 -0.0195793 0)
(-0.00654884 -0.032997 0)
(-0.00642911 -0.0476239 0)
(-0.00659245 -0.0649543 0)
(-0.008082 -0.0876818 0)
(-0.00786408 -0.12009 0)
(-0.0119751 -0.16163 0)
(-0.00275913 -0.204019 0)
(0.0018524 0.094267 0)
(0.00329215 0.112437 0)
(0.00439848 0.111545 0)
(0.00532376 0.102803 0)
(0.00597269 0.0894289 0)
(0.0063291 0.0745606 0)
(0.00643309 0.0596202 0)
(0.00628434 0.0453054 0)
(0.00595594 0.0317575 0)
(0.00551063 0.0188123 0)
(0.0050014 0.00617507 0)
(0.0044625 -0.00645979 0)
(0.00389846 -0.0193504 0)
(0.00325903 -0.0327341 0)
(0.00235904 -0.047065 0)
(0.00114935 -0.0637084 0)
(-0.00215426 -0.0857974 0)
(-0.00269814 -0.118282 0)
(-0.0100472 -0.161566 0)
(-0.00128369 -0.211618 0)
(0.00355471 0.0906696 0)
(0.00797776 0.110391 0)
(0.011159 0.109719 0)
(0.0138824 0.10169 0)
(0.0158527 0.0885877 0)
(0.0171615 0.0740852 0)
(0.0179414 0.0594898 0)
(0.0182486 0.0454612 0)
(0.0181695 0.0321397 0)
(0.0177684 0.0193779 0)
(0.0170808 0.00690004 0)
(0.0161163 -0.00558371 0)
(0.014857 -0.0183062 0)
(0.0132683 -0.0314447 0)
(0.0112172 -0.0453209 0)
(0.00867844 -0.0611377 0)
(0.00347171 -0.0823922 0)
(0.00244065 -0.114506 0)
(-0.00863445 -0.159647 0)
(0.000906797 -0.217388 0)
(0.00524483 0.0830453 0)
(0.0123375 0.104836 0)
(0.0178072 0.105225 0)
(0.0219609 0.0985306 0)
(0.0254427 0.0863826 0)
(0.0278622 0.0726476 0)
(0.0294991 0.0586921 0)
(0.0304401 0.0451919 0)
(0.030766 0.0323245 0)
(0.0305269 0.019983 0)
(0.0297384 0.00792396 0)
(0.0283778 -0.00412214 0)
(0.026396 -0.0163727 0)
(0.023778 -0.0289893 0)
(0.0203963 -0.0422112 0)
(0.0163755 -0.0571309 0)
(0.00927682 -0.0772486 0)
(0.0076228 -0.10889 0)
(-0.00760848 -0.156395 0)
(0.00350332 -0.221533 0)
(0.00671897 0.0731044 0)
(0.0158936 0.0983233 0)
(0.0233759 0.100186 0)
(0.0293103 0.0942362 0)
(0.0344627 0.0831597 0)
(0.038318 0.0703151 0)
(0.0410997 0.0571588 0)
(0.0429076 0.0443868 0)
(0.0438204 0.0322041 0)
(0.0438786 0.0205381 0)
(0.0430849 0.00918696 0)
(0.041378 -0.00210691 0)
(0.0386773 -0.0135202 0)
(0.0349963 -0.0252782 0)
(0.0301585 -0.0376062 0)
(0.0246089 -0.051477 0)
(0.0155974 -0.0702317 0)
(0.0130016 -0.101479 0)
(-0.00645365 -0.151414 0)
(0.00749827 -0.224166 0)
(0.00774883 0.0599179 0)
(0.0190828 0.0874096 0)
(0.0282423 0.0915832 0)
(0.0360109 0.0871655 0)
(0.0428979 0.0777071 0)
(0.0484236 0.0662696 0)
(0.0526157 0.0543505 0)
(0.0555266 0.0426845 0)
(0.0572255 0.0315336 0)
(0.0577415 0.0208834 0)
(0.0570539 0.0105877 0)
(0.0551075 0.000412508 0)
(0.0517493 -0.00976838 0)
(0.0470659 -0.0202878 0)
(0.0407177 -0.0314282 0)
(0.0336644 -0.044129 0)
(0.0225583 -0.0615749 0)
(0.0190209 -0.0929324 0)
(-0.00467921 -0.146224 0)
(0.012462 -0.225576 0)
(0.00740439 0.0463618 0)
(0.0196575 0.0777338 0)
(0.0305833 0.0832909 0)
(0.0405633 0.0795653 0)
(0.0497215 0.0712494 0)
(0.0574061 0.0611114 0)
(0.0634539 0.0505256 0)
(0.0678352 0.0401632 0)
(0.0706032 0.0303036 0)
(0.0718051 0.02097 0)
(0.0713828 0.0120614 0)
(0.0693835 0.00336832 0)
(0.0655228 -0.00523511 0)
(0.0600949 -0.0141617 0)
(0.052354 -0.0237617 0)
(0.0440702 -0.0351042 0)
(0.0307453 -0.0511187 0)
(0.026591 -0.0827541 0)
(-0.00207947 -0.13895 0)
(0.019193 -0.225399 0)
(0.00515898 0.0321019 0)
(0.0186837 0.0616523 0)
(0.0313888 0.0691417 0)
(0.0437011 0.0672185 0)
(0.0552302 0.0609053 0)
(0.0652318 0.0527918 0)
(0.073315 0.0441922 0)
(0.0793564 0.0357464 0)
(0.0833755 0.0277492 0)
(0.0854752 0.0202438 0)
(0.0855679 0.013178 0)
(0.0838786 0.00635185 0)
(0.0799174 -0.000349899 0)
(0.0744329 -0.00738729 0)
(0.0658866 -0.0149647 0)
(0.0571667 -0.0245992 0)
(0.0419509 -0.0387543 0)
(0.03758 -0.070756 0)
(0.0027399 -0.129762 0)
(0.0283891 -0.219772 0)
(-0.00457406 0.0248101 0)
(0.00906681 0.052615 0)
(0.0250612 0.0577413 0)
(0.0410486 0.0558399 0)
(0.056053 0.0506339 0)
(0.0691059 0.0441579 0)
(0.0798391 0.0374614 0)
(0.0881817 0.030956 0)
(0.0941524 0.0248347 0)
(0.0979557 0.0192109 0)
(0.0994801 0.0140435 0)
(0.0991996 0.00919842 0)
(0.096355 0.00462224 0)
(0.0924531 -0.000177719 0)
(0.0847978 -0.00540862 0)
(0.0775942 -0.0128504 0)
(0.0616109 -0.0251342 0)
(0.0572174 -0.0562146 0)
(0.0153267 -0.11518 0)
(0.0440258 -0.199105 0)
(-0.013751 0.031632 0)
(-0.0048738 0.0262224 0)
(0.0178818 0.0291406 0)
(0.0392854 0.0300043 0)
(0.0586331 0.0283707 0)
(0.0756173 0.0253273 0)
(0.0900361 0.0218224 0)
(0.101762 0.0184773 0)
(0.110945 0.0153297 0)
(0.117719 0.0124329 0)
(0.122277 0.00977888 0)
(0.124936 0.00720492 0)
(0.125395 0.00490961 0)
(0.124443 0.00189872 0)
(0.120095 -0.000774438 0)
(0.115831 -0.00662744 0)
(0.102663 -0.0159501 0)
(0.0985842 -0.0426549 0)
(0.0542379 -0.0895409 0)
(0.0760459 -0.152395 0)
(0.0411655 0.0390651 0)
(0.0470674 0.0281553 0)
(0.0703852 0.0239933 0)
(0.0971573 0.0228222 0)
(0.120643 0.0216748 0)
(0.141654 0.0199783 0)
(0.161107 0.0179023 0)
(0.177834 0.0160158 0)
(0.192701 0.0140986 0)
(0.204775 0.0126332 0)
(0.215312 0.0109554 0)
(0.223272 0.00988996 0)
(0.23001 0.00825485 0)
(0.234185 0.00741764 0)
(0.23726 0.00540181 0)
(0.236248 0.00321894 0)
(0.229726 0.00214192 0)
(0.216439 -0.0084661 0)
(0.167727 -0.0133075 0)
(0.145331 -0.0674002 0)
)
;

boundaryField
{
    movingWall
    {
        type            fixedValue;
        value           uniform (1 0 0);
    }
    fixedWalls
    {
        type            noSlip;
    }
    frontAndBack
    {
        type            empty;
    }
}


// ************************************************************************* //
