/*--------------------------------*- C++ -*----------------------------------*\
  =========                 |
  \\      /  F ield         | OpenFOAM: The Open Source CFD Toolbox
   \\    /   O peration     | Website:  https://openfoam.org
    \\  /    A nd           | Version:  6
     \\/     M anipulation  |
\*---------------------------------------------------------------------------*/
FoamFile
{
    version     2.0;
    format      ascii;
    class       volScalarField;
    location    "0.4";
    object      p;
}
// * * * * * * * * * * * * * * * * * * * * * * * * * * * * * * * * * * * * * //

dimensions      [0 2 -2 0 0 0 0];

internalField   nonuniform List<scalar> 
400
(
8.02155e-08
-0.00503929
-0.011424
-0.0162659
-0.017893
-0.0156
-0.00932508
0.000532223
0.0132341
0.0278131
0.0431411
0.0579829
0.0711133
0.0814067
0.0879721
0.0903119
0.0884954
0.0833529
0.0767457
0.0716517
0.00496535
-0.000219072
-0.0059029
-0.00980526
-0.0108906
-0.00868532
-0.00314832
0.00539747
0.016345
0.0288912
0.0420803
0.0548679
0.0662154
0.0751704
0.0809833
0.0832384
0.0819806
0.077797
0.0719049
0.066671
0.0116675
0.00516714
-0.000949705
-0.00460171
-0.00547839
-0.00343248
0.00149333
0.00900228
0.0185799
0.029548
0.0410933
0.0523279
0.0623516
0.0703284
0.0755836
0.0777113
0.0766601
0.0726898
0.0663134
0.0597246
0.017573
0.00904639
0.00155079
-0.00259162
-0.00363906
-0.00175729
0.00288854
0.00996967
0.0189966
0.0293467
0.0402827
0.0509878
0.0606134
0.0683448
0.0734839
0.0755481
0.0743353
0.0697938
0.0619112
0.0531905
0.0209988
0.0102392
0.00103494
-0.00386975
-0.00517819
-0.0033321
0.00137408
0.00855244
0.0177006
0.0282111
0.0393738
0.0503897
0.0604041
0.0685593
0.0740685
0.076315
0.0749137
0.069525
0.0597394
0.0485954
0.0207309
0.00770093
-0.00326514
-0.00892939
-0.010379
-0.00830903
-0.00314353
0.00465758
0.0145592
0.0259456
0.0381047
0.0502229
0.0614009
0.0706931
0.0771741
0.0800435
0.0786967
0.0725005
0.0606972
0.0469831
0.0156782
0.000375412
-0.0122911
-0.0185491
-0.0198622
-0.0171815
-0.0110683
-0.00206349
0.00925482
0.022252
0.0362008
0.0502555
0.0634479
0.0747126
0.0829393
0.087089
0.0862806
0.0795375
0.0657298
0.0493101
0.00468764
-0.0128823
-0.0271037
-0.0336418
-0.0343815
-0.0305655
-0.0229112
-0.0120503
0.00139478
0.0167733
0.033347
0.0502373
0.0663978
0.0806277
0.0915879
0.0979353
0.0984264
0.0916357
0.0759566
0.0566907
-0.0135968
-0.0334083
-0.0489318
-0.0552528
-0.054786
-0.0491398
-0.0392235
-0.025769
-0.00943562
0.00913049
0.0292033
0.0498899
0.0700842
0.088456
0.103396
0.113183
0.11609
0.11007
0.0928329
0.0706099
-0.0408822
-0.0628478
-0.0792402
-0.0845735
-0.081988
-0.0735847
-0.0605184
-0.0436302
-0.0235948
-0.00101184
0.0234487
0.0489119
0.0743366
0.0982276
0.118692
0.133566
0.140482
0.136511
0.118341
0.0931641
-0.0794325
-0.10331
-0.119804
-0.12293
-0.116887
-0.104465
-0.087134
-0.0658436
-0.0412368
-0.0137964
0.0159091
0.0472108
0.0791044
0.110014
0.137857
0.159959
0.173122
0.173171
0.15523
0.127382
-0.132415
-0.157603
-0.172793
-0.171731
-0.160228
-0.14204
-0.119021
-0.0921971
-0.0620899
-0.0290263
0.0067095
0.0447564
0.0842841
0.123875
0.16129
0.193365
0.215878
0.22297
0.207361
0.177714
-0.204555
-0.229629
-0.240869
-0.232344
-0.212344
-0.185962
-0.155443
-0.12179
-0.08535
-0.0460873
-0.00372507
0.0417847
0.0900337
0.139944
0.189382
0.234854
0.270946
0.289724
0.28021
0.250862
-0.30347
-0.324998
-0.327249
-0.305862
-0.272748
-0.234852
-0.194644
-0.152862
-0.109344
-0.0634067
-0.0141795
0.0390789
0.0967164
0.158335
0.222317
0.285263
0.34061
0.378203
0.381641
0.357352
-0.442275
-0.452111
-0.435604
-0.392415
-0.339579
-0.28589
-0.23353
-0.182308
-0.131233
-0.0787296
-0.0230028
0.0376806
0.104746
0.178936
0.259754
0.344665
0.427175
0.493706
0.52281
0.514176
-0.642341
-0.622965
-0.569489
-0.490199
-0.40887
-0.334496
-0.267331
-0.205831
-0.147488
-0.0893216
-0.0282853
0.0386146
0.114224
0.20097
0.300386
0.412115
0.531785
0.643608
0.718843
0.747123
-0.938084
-0.853463
-0.729035
-0.593052
-0.472723
-0.372409
-0.289096
-0.218097
-0.154231
-0.0925989
-0.0286627
0.0419855
0.123877
0.221639
0.339966
0.482782
0.650293
0.830912
0.989118
1.0944
-1.43108
-1.17265
-0.901078
-0.680027
-0.511643
-0.38493
-0.288778
-0.21267
-0.14779
-0.0870741
-0.0245828
0.045333
0.128839
0.232911
0.366357
0.539746
0.763546
1.04399
1.3682
1.66533
-2.49391
-1.64642
-1.04525
-0.704772
-0.492752
-0.351358
-0.254172
-0.183193
-0.125784
-0.0732319
-0.0190386
0.0430699
0.120059
0.220448
0.357198
0.549489
0.825799
1.24452
1.92907
2.84573
-4.48174
-2.27182
-1.15565
-0.68246
-0.435745
-0.290249
-0.201362
-0.142599
-0.0978189
-0.0573943
-0.0153447
0.0348823
0.100388
0.189639
0.318974
0.517504
0.837155
1.41067
2.64128
4.94739
)
;

boundaryField
{
    movingWall
    {
        type            zeroGradient;
    }
    fixedWalls
    {
        type            zeroGradient;
    }
    frontAndBack
    {
        type            empty;
    }
}


// ************************************************************************* //
