/*--------------------------------*- C++ -*----------------------------------*\
  =========                 |
  \\      /  F ield         | OpenFOAM: The Open Source CFD Toolbox
   \\    /   O peration     | Website:  https://openfoam.org
    \\  /    A nd           | Version:  6
     \\/     M anipulation  |
\*---------------------------------------------------------------------------*/
FoamFile
{
    version     2.0;
    format      ascii;
    class       surfaceScalarField;
    location    "0.4";
    object      phi;
}
// * * * * * * * * * * * * * * * * * * * * * * * * * * * * * * * * * * * * * //

dimensions      [0 3 -1 0 0 0 0];

internalField   nonuniform List<scalar> 
760
(
6.97324e-09
-6.9739e-09
-3.19932e-08
3.89664e-08
-1.22711e-07
9.07177e-08
-2.50761e-07
1.2805e-07
-3.97528e-07
1.46767e-07
-5.45042e-07
1.47514e-07
-6.77661e-07
1.32619e-07
-7.82721e-07
1.0506e-07
-8.50763e-07
6.80428e-08
-8.75732e-07
2.49686e-08
-8.54976e-07
-2.07558e-08
-7.89657e-07
-6.53193e-08
-6.84955e-07
-1.04702e-07
-5.50274e-07
-1.34681e-07
-3.9918e-07
-1.51094e-07
-2.48861e-07
-1.50319e-07
-1.18841e-07
-1.3002e-07
-2.84939e-08
-9.03474e-08
8.47998e-09
-3.69739e-08
8.48004e-09
-3.77278e-08
3.07539e-08
-1.84584e-07
1.85823e-07
-4.37691e-07
3.43824e-07
-7.67028e-07
4.57388e-07
-1.13323e-06
5.12965e-07
-1.49648e-06
5.10766e-07
-1.82093e-06
4.57075e-07
-2.07691e-06
3.61034e-07
-2.24199e-06
2.33124e-07
-2.30177e-06
8.47463e-08
-2.25032e-06
-7.2206e-08
-2.09073e-06
-2.24907e-07
-1.83562e-06
-3.59811e-07
-1.50726e-06
-4.63043e-07
-1.13703e-06
-5.21327e-07
-7.63732e-07
-5.23613e-07
-4.30219e-07
-4.63533e-07
-1.77472e-07
-3.43095e-07
-3.4454e-08
-1.79992e-07
-2.59737e-08
-9.3179e-08
1.23933e-07
-3.58253e-07
4.50897e-07
-7.65635e-07
7.51206e-07
-1.2691e-06
9.60855e-07
-1.81458e-06
1.05844e-06
-2.34803e-06
1.04422e-06
-2.82058e-06
9.29626e-07
-3.19152e-06
7.31975e-07
-3.43006e-06
4.71657e-07
-3.51627e-06
1.7096e-07
-3.44208e-06
-1.46396e-07
-3.21184e-06
-4.55147e-07
-2.84291e-06
-7.28743e-07
-2.36574e-06
-9.40214e-07
-1.82305e-06
-1.06401e-06
-1.26752e-06
-1.07914e-06
-7.57354e-07
-9.73703e-07
-3.49247e-07
-7.51201e-07
-8.86694e-08
-4.4057e-07
-1.14643e-07
-1.45266e-07
2.69199e-07
-5.25631e-07
8.31261e-07
-1.08148e-06
1.30706e-06
-1.74668e-06
1.62605e-06
-2.45259e-06
1.76435e-06
-3.13367e-06
1.7253e-06
-3.73178e-06
1.52774e-06
-4.19893e-06
1.19913e-06
-4.49894e-06
7.7166e-07
-4.6084e-06
2.80419e-07
-4.51759e-06
-2.37198e-07
-4.23124e-06
-7.41498e-07
-3.76918e-06
-1.1908e-06
-3.16668e-06
-1.54271e-06
-2.47385e-06
-1.75684e-06
-1.7535e-06
-1.79949e-06
-1.07686e-06
-1.65035e-06
-5.16887e-07
-1.31117e-06
-1.40039e-07
-8.17418e-07
-2.54681e-07
-1.93507e-07
4.62705e-07
-6.8462e-07
1.32238e-06
-1.38441e-06
2.00685e-06
-2.20475e-06
2.44639e-06
-3.06152e-06
2.62112e-06
-3.87848e-06
2.54225e-06
-4.59017e-06
2.23943e-06
-5.14371e-06
1.75266e-06
-5.49958e-06
1.12753e-06
-5.63219e-06
4.13035e-07
-5.53043e-06
-3.38963e-07
-5.19841e-06
-1.07352e-06
-4.65649e-06
-1.73272e-06
-3.94216e-06
-2.25704e-06
-3.11033e-06
-2.58868e-06
-2.23214e-06
-2.67768e-06
-1.39171e-06
-2.49077e-06
-6.80325e-07
-2.02256e-06
-1.88684e-07
-1.30906e-06
-4.43364e-07
-2.40045e-07
7.0275e-07
-8.39684e-07
1.92201e-06
-1.68095e-06
2.84811e-06
-2.65252e-06
3.41796e-06
-3.65401e-06
3.62262e-06
-4.59896e-06
3.4872e-06
-5.41613e-06
3.0566e-06
-6.04963e-06
2.38616e-06
-6.4584e-06
1.5363e-06
-6.61571e-06
5.70346e-07
-6.50913e-06
-4.4555e-07
-6.14119e-06
-1.44146e-06
-5.53086e-06
-2.34306e-06
-4.71536e-06
-3.07254e-06
-3.75202e-06
-3.55202e-06
-2.71892e-06
-3.71079e-06
-1.7133e-06
-3.49638e-06
-8.46884e-07
-2.88898e-06
-2.37713e-07
-1.91823e-06
-6.81077e-07
-2.87256e-07
9.90006e-07
-9.96243e-07
2.631e-06
-1.97841e-06
3.83028e-06
-3.09778e-06
4.53733e-06
-4.23737e-06
4.76221e-06
-5.30143e-06
4.55126e-06
-6.21483e-06
3.97e-06
-6.92097e-06
3.0923e-06
-7.37925e-06
1.99459e-06
-7.56309e-06
7.5418e-07
-7.4589e-06
-5.49735e-07
-7.06663e-06
-1.83372e-06
-6.40168e-06
-3.00801e-06
-5.49809e-06
-3.97613e-06
-4.41256e-06
-4.63754e-06
-3.22791e-06
-4.89544e-06
-2.05411e-06
-4.67019e-06
-1.02525e-06
-3.91784e-06
-2.90663e-07
-2.65282e-06
-9.71739e-07
-3.3738e-07
1.32739e-06
-1.15926e-06
3.45289e-06
-2.28248e-06
4.9535e-06
-3.54426e-06
5.79912e-06
-4.81107e-06
6.02901e-06
-5.97979e-06
5.71998e-06
-6.97441e-06
4.96462e-06
-7.74087e-06
3.85876e-06
-8.2419e-06
2.49561e-06
-8.45287e-06
9.65145e-07
-8.35959e-06
-6.43015e-07
-7.95835e-06
-2.23496e-06
-7.25851e-06
-3.70785e-06
-6.28704e-06
-4.9476e-06
-5.09564e-06
-5.82894e-06
-3.7679e-06
-6.22318e-06
-2.42463e-06
-6.01346e-06
-1.22371e-06
-5.11876e-06
-3.51046e-07
-3.52548e-06
-1.32278e-06
-3.92702e-07
1.72009e-06
-1.33321e-06
4.39339e-06
-2.5966e-06
6.21689e-06
-3.99016e-06
7.19268e-06
-5.36462e-06
7.40347e-06
-6.61299e-06
6.96835e-06
-7.66313e-06
6.01476e-06
-8.46834e-06
4.66397e-06
-8.99867e-06
3.02595e-06
-9.23429e-06
1.20076e-06
-9.16144e-06
-7.15864e-07
-8.77188e-06
-2.62452e-06
-8.06603e-06
-4.4137e-06
-7.05885e-06
-5.95478e-06
-5.7906e-06
-7.09719e-06
-4.33914e-06
-7.67464e-06
-2.83155e-06
-7.52105e-06
-1.44959e-06
-6.50072e-06
-4.22414e-07
-4.55266e-06
-1.7452e-06
-4.56073e-07
2.17616e-06
-1.52271e-06
5.46003e-06
-2.9219e-06
7.61608e-06
-4.42695e-06
8.69773e-06
-5.87516e-06
8.85168e-06
-7.16167e-06
8.25487e-06
-8.22538e-06
7.07847e-06
-9.0337e-06
5.47229e-06
-9.56959e-06
3.56183e-06
-9.82186e-06
1.45303e-06
-9.77914e-06
-7.58585e-07
-9.42837e-06
-2.97529e-06
-8.75719e-06
-5.08488e-06
-7.76332e-06
-6.94865e-06
-6.46678e-06
-8.39372e-06
-4.92944e-06
-9.21198e-06
-3.27597e-06
-9.17452e-06
-1.70912e-06
-8.06757e-06
-5.08704e-07
-5.75307e-06
-2.2539e-06
-5.31808e-07
2.70797e-06
-1.73365e-06
6.66188e-06
-3.25714e-06
9.13957e-06
-4.83735e-06
1.02779e-05
-6.30361e-06
1.03179e-05
-7.56308e-06
9.51434e-06
-8.57604e-06
8.09143e-06
-9.33296e-06
6.22922e-06
-9.83651e-06
4.06538e-06
-1.00887e-05
1.70523e-06
-1.00838e-05
-7.635e-07
-9.80459e-06
-3.25449e-06
-9.22392e-06
-5.66555e-06
-8.31449e-06
-7.85807e-06
-7.06549e-06
-9.64273e-06
-5.5084e-06
-1.07691e-05
-3.75067e-06
-1.09323e-05
-2.00722e-06
-9.81102e-06
-6.14813e-07
-7.14548e-06
-2.86871e-06
-6.27034e-07
3.335e-06
-1.97431e-06
8.00915e-06
-3.59728e-06
1.07625e-05
-5.19065e-06
1.18713e-05
-6.58756e-06
1.17149e-05
-7.7229e-06
1.06497e-05
-8.59249e-06
8.96102e-06
-9.22059e-06
6.85732e-06
-9.63733e-06
4.48212e-06
-9.86365e-06
1.93154e-06
-9.90173e-06
-7.25413e-07
-9.73087e-06
-3.42535e-06
-9.30917e-06
-6.08725e-06
-8.57968e-06
-8.58756e-06
-7.48872e-06
-1.07337e-05
-6.01817e-06
-1.22396e-05
-4.23502e-06
-1.27154e-05
-2.34657e-06
-1.16995e-05
-7.47424e-07
-8.74462e-06
-3.61614e-06
-7.5362e-07
4.08862e-06
-2.25542e-06
9.51095e-06
-3.92798e-06
1.24351e-05
-5.43185e-06
1.33752e-05
-6.62752e-06
1.29105e-05
-7.5015e-06
1.15236e-05
-8.10294e-06
9.56246e-06
-8.5013e-06
7.25569e-06
-8.75979e-06
4.7406e-06
-8.92122e-06
2.09297e-06
-8.99982e-06
-6.46813e-07
-8.97585e-06
-3.44931e-06
-8.79342e-06
-6.26968e-06
-8.36423e-06
-9.01676e-06
-7.58224e-06
-1.15157e-05
-6.35781e-06
-1.34641e-05
-4.68499e-06
-1.43882e-05
-2.72469e-06
-1.36598e-05
-9.16062e-07
-1.05532e-05
-4.5322e-06
-9.30835e-07
5.01946e-06
-2.58589e-06
1.1166e-05
-4.20937e-06
1.40586e-05
-5.45747e-06
1.46233e-05
-6.26096e-06
1.3714e-05
-6.69109e-06
1.19538e-05
-6.86907e-06
9.74043e-06
-6.91604e-06
7.30266e-06
-6.9312e-06
4.75577e-06
-6.98047e-06
2.14224e-06
-7.09114e-06
-5.36142e-07
-7.24773e-06
-3.29272e-06
-7.38709e-06
-6.13032e-06
-7.3951e-06
-9.00875e-06
-7.11178e-06
-1.1799e-05
-6.35736e-06
-1.42185e-05
-5.01254e-06
-1.5733e-05
-3.12533e-06
-1.5547e-05
-1.13381e-06
-1.25448e-05
-5.666e-06
-1.18259e-06
6.20205e-06
-2.95107e-06
1.29345e-05
-4.33798e-06
1.54455e-05
-5.06783e-06
1.53531e-05
-5.21814e-06
1.38643e-05
-4.98314e-06
1.17188e-05
-4.56548e-06
9.32278e-06
-4.1383e-06
6.87548e-06
-3.82863e-06
4.4461e-06
-3.71772e-06
2.03132e-06
-3.84366e-06
-4.10204e-07
-4.19999e-06
-2.93638e-06
-4.72818e-06
-5.60214e-06
-5.30526e-06
-8.43166e-06
-5.73209e-06
-1.13722e-05
-5.73838e-06
-1.42122e-05
-5.03772e-06
-1.64337e-05
-3.49489e-06
-1.70898e-05
-1.41275e-06
-1.46269e-05
-7.07876e-06
-1.51645e-06
7.71849e-06
-3.25307e-06
1.46711e-05
-4.05521e-06
1.62476e-05
-3.88294e-06
1.51808e-05
-3.05581e-06
1.30372e-05
-1.91811e-06
1.05811e-05
-7.55373e-07
8.16004e-06
2.32473e-07
5.88763e-06
9.1647e-07
3.7621e-06
1.2184e-06
1.72939e-06
1.09769e-06
-2.8949e-07
5.4839e-07
-2.38708e-06
-3.92208e-07
-4.66154e-06
-1.62321e-06
-7.20065e-06
-2.94703e-06
-1.00483e-05
-4.03558e-06
-1.31236e-05
-4.4226e-06
-1.60467e-05
-3.66503e-06
-1.78474e-05
-1.7371e-06
-1.65548e-05
-8.81585e-06
-1.87181e-06
9.5903e-06
-3.17214e-06
1.59714e-05
-2.76563e-06
1.58411e-05
-1.15827e-06
1.35735e-05
9.89314e-07
1.08896e-05
3.18502e-06
8.38537e-06
5.12981e-06
6.21525e-06
6.65972e-06
4.35772e-06
7.68781e-06
2.73402e-06
8.16671e-06
1.25049e-06
8.06725e-06
-1.90027e-07
7.37099e-06
-1.69083e-06
6.07736e-06
-3.3679e-06
4.22481e-06
-5.3481e-06
1.93928e-06
-7.76282e-06
-4.87644e-07
-1.06967e-05
-2.49377e-06
-1.40406e-05
-3.22761e-06
-1.71136e-05
-2.0008e-06
-1.77816e-05
-1.08167e-05
-2.04971e-06
1.164e-05
-1.78748e-06
1.57092e-05
9.08263e-07
1.31454e-05
4.52705e-06
9.9547e-06
8.11331e-06
7.30336e-06
1.12399e-05
5.25875e-06
1.37511e-05
3.70407e-06
1.56079e-05
2.5009e-06
1.68152e-05
1.52673e-06
1.7383e-05
6.82677e-07
1.73075e-05
-1.14456e-07
1.65623e-05
-9.45642e-07
1.51025e-05
-1.90811e-06
1.28723e-05
-3.11789e-06
9.84542e-06
-4.73598e-06
6.11483e-06
-6.96612e-06
2.07704e-06
-1.00028e-05
-1.21936e-06
-1.38172e-05
-1.95523e-06
-1.70458e-05
-1.27719e-05
-8.53353e-07
1.24934e-05
3.89585e-06
1.096e-05
1.00532e-05
6.98805e-06
1.55372e-05
4.47068e-06
1.99167e-05
2.92384e-06
2.32507e-05
1.92476e-06
2.56915e-05
1.26325e-06
2.7385e-05
8.07409e-07
2.8441e-05
4.70725e-07
2.89263e-05
1.97401e-07
2.8863e-05
-5.11637e-08
2.82272e-05
-3.09852e-07
2.69455e-05
-6.26352e-07
2.48822e-05
-1.05467e-06
2.18379e-05
-1.69159e-06
1.7572e-05
-2.70027e-06
1.19157e-05
-4.34645e-06
5.20384e-06
-7.10531e-06
-3.66409e-07
-1.14755e-05
-1.31383e-05
1.24934e-05
2.34534e-05
3.04414e-05
3.49121e-05
3.78359e-05
3.97607e-05
4.10239e-05
4.18314e-05
4.23021e-05
4.24995e-05
4.24483e-05
4.21385e-05
4.15121e-05
4.04574e-05
3.87658e-05
3.60656e-05
3.17191e-05
2.46138e-05
1.31383e-05
)
;

boundaryField
{
    movingWall
    {
        type            calculated;
        value           uniform 0;
    }
    fixedWalls
    {
        type            calculated;
        value           uniform 0;
    }
    frontAndBack
    {
        type            empty;
        value           nonuniform 0();
    }
}


// ************************************************************************* //
