/*--------------------------------*- C++ -*----------------------------------*\
  =========                 |
  \\      /  F ield         | OpenFOAM: The Open Source CFD Toolbox
   \\    /   O peration     | Website:  https://openfoam.org
    \\  /    A nd           | Version:  6
     \\/     M anipulation  |
\*---------------------------------------------------------------------------*/
FoamFile
{
    version     2.0;
    format      ascii;
    class       volVectorField;
    location    "0.4";
    object      U;
}
// * * * * * * * * * * * * * * * * * * * * * * * * * * * * * * * * * * * * * //

dimensions      [0 1 -1 0 0 0 0];

internalField   nonuniform List<vector> 
400
(
(0.000187195 -0.000188114 0)
(-5.3087e-05 2.31709e-05 0)
(-0.00137105 0.000281448 0)
(-0.00362097 0.000459638 0)
(-0.00644475 0.000548534 0)
(-0.00945946 0.00055947 0)
(-0.0123222 0.000506432 0)
(-0.0147473 0.000403425 0)
(-0.0165131 0.000263742 0)
(-0.0174611 0.000100465 0)
(-0.0175065 -7.3937e-05 0)
(-0.0166313 -0.000245393 0)
(-0.0148987 -0.000398023 0)
(-0.0124549 -0.000514401 0)
(-0.00953117 -0.000576102 0)
(-0.0064395 -0.000565441 0)
(-0.00355647 -0.00046816 0)
(-0.00129024 -0.000276985 0)
(1.59539e-06 -9.70891e-06 0)
(0.00019882 0.000198929 0)
(-4.57607e-06 3.14419e-05 0)
(-0.0017358 0.00174422 0)
(-0.00579012 0.0036615 0)
(-0.0117822 0.00506671 0)
(-0.0189285 0.00577447 0)
(-0.0264031 0.00579338 0)
(-0.0334358 0.0052055 0)
(-0.0393636 0.00412285 0)
(-0.0436625 0.00266925 0)
(-0.0459574 0.000978719 0)
(-0.046048 -0.000814445 0)
(-0.0438998 -0.00256042 0)
(-0.0396699 -0.00410162 0)
(-0.0337081 -0.00527432 0)
(-0.0265563 -0.00591922 0)
(-0.0189276 -0.00590052 0)
(-0.0116584 -0.00513584 0)
(-0.00562645 -0.00364554 0)
(-0.00162034 -0.0016676 0)
(1.82281e-05 2.86969e-05 0)
(-0.000259502 0.00132539 0)
(-0.00382001 0.00581825 0)
(-0.0106402 0.0102093 0)
(-0.0200046 0.0133498 0)
(-0.0307687 0.014868 0)
(-0.0418118 0.014757 0)
(-0.0520909 0.0131845 0)
(-0.0607002 0.0104046 0)
(-0.0669183 0.00671461 0)
(-0.0702331 0.00243845 0)
(-0.0703622 -0.00208021 0)
(-0.0672647 -0.00647489 0)
(-0.0611566 -0.010359 0)
(-0.0525175 -0.0133389 0)
(-0.0420866 -0.0150408 0)
(-0.0308322 -0.0151576 0)
(-0.0198849 -0.0135181 0)
(-0.0104413 -0.0101884 0)
(-0.00366569 -0.00565332 0)
(-0.000227343 -0.00118655 0)
(-0.000478734 0.00371609 0)
(-0.00582673 0.0122913 0)
(-0.0153436 0.0198742 0)
(-0.0278995 0.0250903 0)
(-0.0419572 0.0274575 0)
(-0.0561359 0.0269913 0)
(-0.0691903 0.0239795 0)
(-0.0800503 0.0188586 0)
(-0.0878681 0.0121451 0)
(-0.0920433 0.00440469 0)
(-0.0922415 -0.00375846 0)
(-0.0884092 -0.0117024 0)
(-0.0807896 -0.0187534 0)
(-0.0699341 -0.0242284 0)
(-0.056703 -0.0274812 0)
(-0.0422384 -0.0279809 0)
(-0.0278985 -0.0254243 0)
(-0.0151751 -0.0198857 0)
(-0.00565679 -0.0120345 0)
(-0.000437469 -0.00347549 0)
(-0.000669069 0.00711256 0)
(-0.00771131 0.0210244 0)
(-0.019845 0.0324561 0)
(-0.0354873 0.0399825 0)
(-0.0526752 0.0431342 0)
(-0.0697674 0.0420303 0)
(-0.0853474 0.0371358 0)
(-0.0982281 0.0291123 0)
(-0.107482 0.0187296 0)
(-0.112457 0.0068243 0)
(-0.112781 -0.0057131 0)
(-0.108382 -0.0179381 0)
(-0.0995003 -0.0288586 0)
(-0.0867102 -0.0374628 0)
(-0.0709378 -0.0427823 0)
(-0.0534512 -0.0440007 0)
(-0.0358131 -0.0406085 0)
(-0.0198299 -0.0325998 0)
(-0.00757302 -0.0207184 0)
(-0.000621699 -0.00676393 0)
(-0.000848398 0.0114502 0)
(-0.00953973 0.0319366 0)
(-0.02425 0.0478766 0)
(-0.0429202 0.0579219 0)
(-0.0631372 0.0617495 0)
(-0.0829968 0.0596907 0)
(-0.100933 0.0524668 0)
(-0.115679 0.0410159 0)
(-0.126268 0.0263915 0)
(-0.132024 0.00971574 0)
(-0.132554 -0.00782825 0)
(-0.127755 -0.0249882 0)
(-0.117834 -0.0404406 0)
(-0.103343 -0.0528167 0)
(-0.0852216 -0.0607735 0)
(-0.0648215 -0.0631287 0)
(-0.0438956 -0.0590596 0)
(-0.0245892 -0.0483538 0)
(-0.00951719 -0.0317031 0)
(-0.000802778 -0.0110185 0)
(-0.0010324 0.0167175 0)
(-0.0113944 0.0450155 0)
(-0.0286911 0.0661143 0)
(-0.0503538 0.0788536 0)
(-0.073498 0.0832023 0)
(-0.0959619 0.0798359 0)
(-0.116061 0.0698293 0)
(-0.132496 0.0544579 0)
(-0.144303 0.0350852 0)
(-0.150821 0.0131204 0)
(-0.151649 -0.00997405 0)
(-0.146646 -0.0326544 0)
(-0.135953 -0.0532725 0)
(-0.120045 -0.0700853 0)
(-0.0998132 -0.0813211 0)
(-0.0766343 -0.085333 0)
(-0.052421 -0.0808434 0)
(-0.0296727 -0.067268 0)
(-0.0116157 -0.0450961 0)
(-0.00100244 -0.0162803 0)
(-0.00123558 0.0229506 0)
(-0.0133548 0.060308 0)
(-0.0332866 0.0871737 0)
(-0.0578948 0.102705 0)
(-0.083798 0.107339 0)
(-0.1086 0.102257 0)
(-0.130552 0.0890052 0)
(-0.148385 0.0692631 0)
(-0.161209 0.0447243 0)
(-0.168421 0.0170705 0)
(-0.169639 -0.0119941 0)
(-0.164679 -0.0406771 0)
(-0.15358 -0.0670375 0)
(-0.136677 -0.088961 0)
(-0.114721 -0.104198 0)
(-0.0890268 -0.110522 0)
(-0.0616001 -0.106024 0)
(-0.0352846 -0.0895252 0)
(-0.0139952 -0.0611076 0)
(-0.00124237 -0.0226635 0)
(-0.00147376 0.0302302 0)
(-0.0155009 0.0779102 0)
(-0.0381347 0.111058 0)
(-0.0655784 0.129334 0)
(-0.0939275 0.133879 0)
(-0.1206 0.126585 0)
(-0.143874 0.109612 0)
(-0.16261 0.0851132 0)
(-0.176083 0.0551227 0)
(-0.183819 0.0215563 0)
(-0.185497 -0.0137064 0)
(-0.180892 -0.0487024 0)
(-0.1699 -0.0812659 0)
(-0.15264 -0.108945 0)
(-0.129606 -0.128981 0)
(-0.10191 -0.138451 0)
(-0.0715276 -0.13459 0)
(-0.0415914 -0.11533 0)
(-0.0167815 -0.0800355 0)
(-0.00154668 -0.0303527 0)
(-0.00176873 0.0386865 0)
(-0.0179291 0.0979574 0)
(-0.0433222 0.137729 0)
(-0.0733576 0.158456 0)
(-0.103589 0.162317 0)
(-0.131345 0.152185 0)
(-0.155069 0.131 0)
(-0.173904 0.101459 0)
(-0.187407 0.0659249 0)
(-0.195335 0.0264831 0)
(-0.197485 -0.0149174 0)
(-0.193615 -0.0562727 0)
(-0.183426 -0.0952788 0)
(-0.166743 -0.129251 0)
(-0.143654 -0.154931 0)
(-0.114869 -0.168589 0)
(-0.0821252 -0.166347 0)
(-0.0487068 -0.144837 0)
(-0.0201076 -0.102243 0)
(-0.00194625 -0.0396067 0)
(-0.00215612 0.0485183 0)
(-0.0207796 0.120619 0)
(-0.0489405 0.16705 0)
(-0.0810826 0.189541 0)
(-0.112237 0.191797 0)
(-0.139816 0.178026 0)
(-0.162648 0.152136 0)
(-0.180353 0.11742 0)
(-0.192935 0.0765314 0)
(-0.200489 0.0316256 0)
(-0.203017 -0.0154338 0)
(-0.200272 -0.062737 0)
(-0.191814 -0.10811 0)
(-0.177013 -0.148699 0)
(-0.1554 -0.180843 0)
(-0.12702 -0.199952 0)
(-0.0930549 -0.200751 0)
(-0.0566671 -0.178048 0)
(-0.0241268 -0.128121 0)
(-0.00248583 -0.0507719 0)
(-0.00269875 0.0600366 0)
(-0.0242738 0.146099 0)
(-0.0550895 0.198699 0)
(-0.0884387 0.221662 0)
(-0.118953 0.220941 0)
(-0.144434 0.202526 0)
(-0.164418 0.171475 0)
(-0.17925 0.131693 0)
(-0.189553 0.0860334 0)
(-0.195922 0.036545 0)
(-0.198602 -0.0151327 0)
(-0.197416 -0.0674571 0)
(-0.191731 -0.118522 0)
(-0.180496 -0.165633 0)
(-0.162493 -0.20489 0)
(-0.136792 -0.230877 0)
(-0.103569 -0.236676 0)
(-0.065377 -0.214631 0)
(-0.0290273 -0.15804 0)
(-0.00323586 -0.0643118 0)
(-0.00351028 0.0737444 0)
(-0.028757 0.174617 0)
(-0.0618304 0.232004 0)
(-0.0947708 0.253259 0)
(-0.122185 0.247622 0)
(-0.142776 0.223375 0)
(-0.157222 0.186856 0)
(-0.166874 0.14249 0)
(-0.17318 0.0931471 0)
(-0.177229 0.0406186 0)
(-0.179623 -0.0139598 0)
(-0.180344 -0.0696056 0)
(-0.178623 -0.124991 0)
(-0.172981 -0.177877 0)
(-0.16137 -0.224469 0)
(-0.141581 -0.25876 0)
(-0.112235 -0.272082 0)
(-0.0744783 -0.253645 0)
(-0.0350378 -0.192236 0)
(-0.00431387 -0.0808599 0)
(-0.00479535 0.0904562 0)
(-0.0347169 0.206345 0)
(-0.0689891 0.265627 0)
(-0.0986429 0.281755 0)
(-0.119223 0.268683 0)
(-0.131061 0.237394 0)
(-0.136536 0.195449 0)
(-0.138236 0.147544 0)
(-0.138448 0.0962999 0)
(-0.138855 0.0429594 0)
(-0.14041 -0.0120159 0)
(-0.143257 -0.068432 0)
(-0.146627 -0.125822 0)
(-0.148755 -0.182786 0)
(-0.146837 -0.236137 0)
(-0.137225 -0.279806 0)
(-0.116437 -0.303588 0)
(-0.083037 -0.293077 0)
(-0.0423778 -0.230591 0)
(-0.00591555 -0.101278 0)
(-0.0068459 0.11139 0)
(-0.0425796 0.241041 0)
(-0.0754777 0.296931 0)
(-0.0969846 0.303061 0)
(-0.105182 0.27963 0)
(-0.103408 0.240471 0)
(-0.0959296 0.19387 0)
(-0.0867515 0.144294 0)
(-0.078879 0.09371 0)
(-0.0743784 0.0425591 0)
(-0.0744387 -0.00954909 0)
(-0.0793967 -0.0633408 0)
(-0.0886493 -0.119397 0)
(-0.100447 -0.177515 0)
(-0.111605 -0.235741 0)
(-0.117273 -0.288873 0)
(-0.111419 -0.325801 0)
(-0.088768 -0.329242 0)
(-0.0509853 -0.272146 0)
(-0.00829299 -0.126652 0)
(-0.0098538 0.13841 0)
(-0.0519229 0.277321 0)
(-0.0776853 0.3209 0)
(-0.0830429 0.310679 0)
(-0.0717168 0.274453 0)
(-0.0504972 0.227764 0)
(-0.0263236 0.178607 0)
(-0.00404813 0.130392 0)
(0.0131609 0.0838918 0)
(0.0233075 0.0385322 0)
(0.0252416 -0.00694433 0)
(0.0184881 -0.0541211 0)
(0.00329587 -0.104609 0)
(-0.01908 -0.159576 0)
(-0.0458262 -0.21888 0)
(-0.0717815 -0.279315 0)
(-0.0886587 -0.331289 0)
(-0.0864822 -0.354525 0)
(-0.0594511 -0.314121 0)
(-0.0114916 -0.158409 0)
(-0.0137736 0.175396 0)
(-0.059274 0.311325 0)
(-0.0658493 0.328177 0)
(-0.0431016 0.295262 0)
(-0.00294753 0.245818 0)
(0.0423339 0.19456 0)
(0.0847738 0.147167 0)
(0.120095 0.104711 0)
(0.145988 0.0663626 0)
(0.161241 0.0305503 0)
(0.165152 -0.00460726 0)
(0.157254 -0.0412085 0)
(0.137296 -0.0815485 0)
(0.105505 -0.127948 0)
(0.0632426 -0.182296 0)
(0.0143156 -0.244574 0)
(-0.033095 -0.309388 0)
(-0.0644427 -0.358674 0)
(-0.0627661 -0.350222 0)
(-0.0152121 -0.199666 0)
(-0.0183001 0.226784 0)
(-0.0514662 0.331484 0)
(-0.0161359 0.302994 0)
(0.0526444 0.244787 0)
(0.127763 0.18771 0)
(0.196076 0.139561 0)
(0.252865 0.10068 0)
(0.296629 0.0692004 0)
(0.327247 0.0428492 0)
(0.344991 0.0194994 0)
(0.349977 -0.00280677 0)
(0.341936 -0.0260755 0)
(0.320119 -0.0526019 0)
(0.283429 -0.0850802 0)
(0.230801 -0.12682 0)
(0.162362 -0.1812 0)
(0.0818423 -0.249375 0)
(0.00204708 -0.32348 0)
(-0.046401 -0.365616 0)
(-0.0185011 -0.252227 0)
(0.000981849 0.256059 0)
(0.0216971 0.296612 0)
(0.135301 0.222444 0)
(0.258748 0.154336 0)
(0.35913 0.105655 0)
(0.435888 0.0719486 0)
(0.493015 0.0484881 0)
(0.533856 0.0316438 0)
(0.561 0.0188203 0)
(0.576235 0.00820279 0)
(0.580426 -0.00156449 0)
(0.57366 -0.0117311 0)
(0.554895 -0.0239007 0)
(0.522113 -0.0399721 0)
(0.471978 -0.0630247 0)
(0.399756 -0.0977877 0)
(0.299475 -0.150742 0)
(0.169443 -0.227839 0)
(0.0408164 -0.314328 0)
(0.00501445 -0.274289 0)
(0.267416 0.116491 0)
(0.377133 0.101432 0)
(0.538777 0.0535714 0)
(0.658122 0.0285245 0)
(0.732101 0.0165351 0)
(0.779106 0.00983198 0)
(0.809997 0.00583613 0)
(0.830153 0.00339149 0)
(0.84262 0.00179068 0)
(0.849165 0.00061728 0)
(0.850503 -0.000416519 0)
(0.847096 -0.00142189 0)
(0.837997 -0.0028112 0)
(0.821661 -0.00490586 0)
(0.795182 -0.00836694 0)
(0.752856 -0.0144179 0)
(0.683132 -0.0256869 0)
(0.565492 -0.0500999 0)
(0.398162 -0.0994447 0)
(0.276536 -0.118106 0)
)
;

boundaryField
{
    movingWall
    {
        type            fixedValue;
        value           uniform (1 0 0);
    }
    fixedWalls
    {
        type            noSlip;
    }
    frontAndBack
    {
        type            empty;
    }
}


// ************************************************************************* //
