/*--------------------------------*- C++ -*----------------------------------*\
| =========                 |                                                 |
| \\      /  F ield         | OpenFOAM: The Open Source CFD Toolbox           |
|  \\    /   O peration     | Version:  5.0                                   |
|   \\  /    A nd           | Web:      www.OpenFOAM.org                      |
|    \\/     M anipulation  |                                                 |
\*---------------------------------------------------------------------------*/
FoamFile
{
    version     2.0;
    format      ascii;
    class       volScalarField;
    location    "6.5";
    object      p;
}
// * * * * * * * * * * * * * * * * * * * * * * * * * * * * * * * * * * * * * //

dimensions      [0 2 -2 0 0 0 0];

internalField   nonuniform List<scalar> 
400
(
3.37388e-08
-9.14027e-05
-0.000233617
-0.000155339
-0.000679559
-0.00212346
-0.00398341
-0.00570625
-0.00706809
-0.00795335
-0.00835933
-0.00828625
-0.00775002
-0.00664023
-0.00477753
-0.00200897
0.00165181
0.0057759
0.0089069
0.0102908
1.65122e-05
-5.99785e-05
-0.000201594
-0.000698382
-0.00174734
-0.00331595
-0.00499689
-0.00660217
-0.0078529
-0.00865633
-0.00899889
-0.0089139
-0.00842845
-0.00750014
-0.0059989
-0.00374419
-0.000624887
0.00321448
0.0067322
0.00887414
0.000298383
-4.05414e-05
-0.000709226
-0.0018309
-0.00338754
-0.00507446
-0.00673825
-0.00822891
-0.00928985
-0.00991421
-0.0100943
-0.00987739
-0.00931222
-0.008463
-0.00729758
-0.00570834
-0.00342867
-0.000347936
0.0030262
0.00546918
0.000254827
-0.000396293
-0.00166162
-0.00339111
-0.00525324
-0.00698533
-0.0084685
-0.00961194
-0.0104005
-0.0108071
-0.0108346
-0.0105437
-0.00997771
-0.00919798
-0.00824835
-0.00711476
-0.00565046
-0.00346109
-0.000679969
0.00157463
-0.0004618
-0.00134298
-0.00305712
-0.00508971
-0.00697666
-0.00854896
-0.0098017
-0.0107617
-0.0114141
-0.0117159
-0.0116776
-0.0113346
-0.0107431
-0.00998364
-0.00914152
-0.00824571
-0.00727788
-0.00582274
-0.00391291
-0.00193094
-0.0018441
-0.00280454
-0.00465945
-0.00668661
-0.00843227
-0.00980555
-0.0109089
-0.0117677
-0.0123458
-0.0125951
-0.0125149
-0.0121511
-0.0115598
-0.0108119
-0.010031
-0.00924682
-0.00855372
-0.00755533
-0.00632746
-0.00474356
-0.0034947
-0.00443038
-0.00619569
-0.00807823
-0.0096349
-0.0108365
-0.0118377
-0.0126247
-0.0131479
-0.0133598
-0.0132517
-0.0128688
-0.0122865
-0.0115536
-0.0108153
-0.0100871
-0.0095471
-0.00880882
-0.00806599
-0.00682493
-0.00503112
-0.00587582
-0.00747297
-0.00919256
-0.0105788
-0.0116438
-0.0125583
-0.0132755
-0.0137331
-0.0138973
-0.013763
-0.0133633
-0.012796
-0.0120976
-0.0114159
-0.0107187
-0.01029
-0.00967689
-0.00922305
-0.00826291
-0.00617673
-0.00694622
-0.00840066
-0.00998481
-0.0112398
-0.012197
-0.013028
-0.013665
-0.0140504
-0.0141621
-0.0140097
-0.0136071
-0.0130675
-0.0124013
-0.0117986
-0.011123
-0.0107956
-0.0102205
-0.00997714
-0.00918588
-0.00685257
-0.00755656
-0.00891415
-0.0104172
-0.0115838
-0.0124599
-0.0132145
-0.0137699
-0.0140887
-0.0141531
-0.0139963
-0.0135992
-0.0131117
-0.0124615
-0.0119659
-0.0113086
-0.0110953
-0.010471
-0.0104256
-0.00972969
-0.00701588
-0.00769878
-0.00898295
-0.0104562
-0.0115981
-0.0124433
-0.0131291
-0.0136123
-0.0138758
-0.0139122
-0.0137496
-0.0134002
-0.0129444
-0.0123679
-0.0119687
-0.0112888
-0.0112221
-0.0104475
-0.0107046
-0.00992963
-0.00667572
-0.00738154
-0.008636
-0.0101294
-0.0113042
-0.0121726
-0.0128283
-0.0132701
-0.013508
-0.013542
-0.0134002
-0.0131003
-0.0126959
-0.0122035
-0.0118144
-0.0111576
-0.0111889
-0.0101588
-0.0107929
-0.00976162
-0.00594472
-0.00671124
-0.00797113
-0.0094722
-0.0107505
-0.0116959
-0.0123851
-0.0128417
-0.0130935
-0.0131489
-0.0130359
-0.0127801
-0.0124218
-0.0119829
-0.0115638
-0.0109643
-0.0108892
-0.00969634
-0.0105763
-0.00912195
-0.00509466
-0.00589557
-0.00710435
-0.0085182
-0.00992927
-0.0110157
-0.01181
-0.0123435
-0.0126553
-0.0127577
-0.0126834
-0.012465
-0.0121357
-0.0117085
-0.0112359
-0.0106425
-0.0103045
-0.00905804
-0.00990463
-0.00795384
-0.00440345
-0.00510021
-0.00612809
-0.00735753
-0.0087792
-0.0100566
-0.0110639
-0.0117659
-0.012194
-0.0123775
-0.0123568
-0.0121543
-0.0118186
-0.0113531
-0.0107812
-0.0100731
-0.00937904
-0.00815373
-0.00874677
-0.00627353
-0.00421965
-0.00451064
-0.00507689
-0.00598225
-0.00728248
-0.00872477
-0.00999369
-0.0109533
-0.0115842
-0.0118962
-0.0119395
-0.0117476
-0.0113732
-0.01082
-0.0100921
-0.00917864
-0.00813359
-0.00690245
-0.00713273
-0.0041046
-0.00433183
-0.00412937
-0.00397435
-0.00442288
-0.00553051
-0.00703126
-0.00853879
-0.00977164
-0.0106558
-0.0111631
-0.0113354
-0.0111957
-0.0107804
-0.0101093
-0.00918716
-0.00801392
-0.0066889
-0.00535034
-0.00508783
-0.00129986
-0.00411391
-0.00350658
-0.00273217
-0.00274964
-0.00368846
-0.00520468
-0.00686832
-0.00832012
-0.00943714
-0.0101635
-0.0104906
-0.0104265
-0.0100128
-0.00926307
-0.00819674
-0.00682362
-0.0052493
-0.00358504
-0.0022373
0.00361089
-0.00353654
-0.00267658
-0.00157539
-0.00141004
-0.00225648
-0.00376512
-0.00552042
-0.00716096
-0.00847711
-0.00938858
-0.00985727
-0.00988614
-0.00949199
-0.00869795
-0.00753874
-0.00600327
-0.00408974
-0.00141113
0.00372983
0.0163297
-0.00498947
-0.00188612
-0.00052692
-0.000547883
-0.00136978
-0.00286501
-0.00465721
-0.006452
-0.0079214
-0.0089698
-0.00953641
-0.00965128
-0.00931143
-0.00854879
-0.00731117
-0.00556216
-0.00251047
0.00401841
0.0179726
0.0408318
)
;

boundaryField
{
    movingWall
    {
        type            zeroGradient;
    }
    fixedWalls
    {
        type            zeroGradient;
    }
    frontAndBack
    {
        type            empty;
    }
}


// ************************************************************************* //
