/*--------------------------------*- C++ -*----------------------------------*\
| =========                 |                                                 |
| \\      /  F ield         | OpenFOAM: The Open Source CFD Toolbox           |
|  \\    /   O peration     | Version:  5.0                                   |
|   \\  /    A nd           | Web:      www.OpenFOAM.org                      |
|    \\/     M anipulation  |                                                 |
\*---------------------------------------------------------------------------*/
FoamFile
{
    version     2.0;
    format      ascii;
    class       surfaceScalarField;
    location    "6.5";
    object      phi;
}
// * * * * * * * * * * * * * * * * * * * * * * * * * * * * * * * * * * * * * //

dimensions      [0 3 -1 0 0 0 0];

internalField   nonuniform List<scalar> 
760
(
2.72413e-07
-2.72417e-07
1.80398e-07
9.20156e-08
-4.41378e-07
6.21776e-07
-1.80291e-06
1.36154e-06
-3.48559e-06
1.68267e-06
-4.9337e-06
1.44812e-06
-6.1372e-06
1.20349e-06
-7.011e-06
8.73807e-07
-7.67318e-06
6.62178e-07
-8.09898e-06
4.258e-07
-8.35791e-06
2.58926e-07
-8.43146e-06
7.35559e-08
-8.3695e-06
-6.19595e-08
-8.14087e-06
-2.28629e-07
-7.74162e-06
-3.99253e-07
-7.01876e-06
-7.22859e-07
-5.84441e-06
-1.17435e-06
-4.01738e-06
-1.82704e-06
-1.6779e-06
-2.33947e-06
-1.6779e-06
-2.21448e-07
-5.09684e-08
-1.10621e-06
9.76775e-07
-2.68262e-06
2.19818e-06
-4.29383e-06
2.97276e-06
-5.4119e-06
2.80074e-06
-6.37755e-06
2.41377e-06
-7.09807e-06
1.92401e-06
-7.6956e-06
1.47133e-06
-8.09097e-06
1.05756e-06
-8.31888e-06
6.5371e-07
-8.37667e-06
3.16712e-07
-8.27932e-06
-2.37982e-08
-8.08866e-06
-2.52618e-07
-7.80195e-06
-5.15343e-07
-7.37944e-06
-8.21754e-07
-6.8064e-06
-1.2959e-06
-5.89575e-06
-2.085e-06
-4.45274e-06
-3.27004e-06
-2.32842e-06
-4.46379e-06
-4.00633e-06
-9.46195e-07
8.95227e-07
-2.40163e-06
2.43221e-06
-3.82518e-06
3.62173e-06
-4.83715e-06
3.98473e-06
-5.57781e-06
3.54141e-06
-6.12472e-06
2.96068e-06
-6.43033e-06
2.22962e-06
-6.5802e-06
1.6212e-06
-6.53283e-06
1.01019e-06
-6.4469e-06
5.67781e-07
-6.29579e-06
1.65598e-07
-6.14581e-06
-1.73773e-07
-5.88473e-06
-5.13701e-07
-5.60286e-06
-7.97213e-07
-5.26733e-06
-1.15729e-06
-4.89942e-06
-1.66382e-06
-4.44585e-06
-2.53857e-06
-3.65495e-06
-4.06094e-06
-2.20436e-06
-5.91438e-06
-6.21069e-06
-1.27993e-06
2.17515e-06
-2.71627e-06
3.86855e-06
-3.81488e-06
4.72034e-06
-4.48106e-06
4.65091e-06
-4.85384e-06
3.91418e-06
-4.97525e-06
3.0821e-06
-4.99606e-06
2.25043e-06
-5.0019e-06
1.62704e-06
-5.0151e-06
1.02339e-06
-4.97823e-06
5.30906e-07
-4.81287e-06
2.45547e-10
-4.58629e-06
-4.00356e-07
-4.28953e-06
-8.10457e-07
-3.94625e-06
-1.1405e-06
-3.58545e-06
-1.51808e-06
-3.26802e-06
-1.98126e-06
-2.98246e-06
-2.82413e-06
-2.57117e-06
-4.47223e-06
-1.65707e-06
-6.82848e-06
-7.86776e-06
-1.2891e-06
3.46426e-06
-2.46574e-06
5.04519e-06
-3.23609e-06
5.49069e-06
-3.6614e-06
5.07621e-06
-3.82669e-06
4.07947e-06
-3.91354e-06
3.16895e-06
-4.0296e-06
2.36649e-06
-4.13829e-06
1.73573e-06
-4.20657e-06
1.09167e-06
-4.17641e-06
5.00746e-07
-4.04364e-06
-1.32523e-07
-3.80202e-06
-6.41977e-07
-3.46728e-06
-1.1452e-06
-3.0522e-06
-1.55558e-06
-2.64403e-06
-1.92625e-06
-2.29236e-06
-2.33293e-06
-2.03306e-06
-3.08343e-06
-1.88219e-06
-4.62309e-06
-1.27676e-06
-7.43391e-06
-9.14452e-06
-1.06931e-06
4.53357e-06
-1.93431e-06
5.91019e-06
-2.51114e-06
6.06752e-06
-2.8077e-06
5.37277e-06
-2.95003e-06
4.22179e-06
-3.08171e-06
3.30063e-06
-3.24812e-06
2.53289e-06
-3.37761e-06
1.86523e-06
-3.43126e-06
1.14532e-06
-3.39679e-06
4.66275e-07
-3.27565e-06
-2.5367e-07
-3.06492e-06
-8.52702e-07
-2.78265e-06
-1.42747e-06
-2.41639e-06
-1.92184e-06
-1.99855e-06
-2.34409e-06
-1.62301e-06
-2.70847e-06
-1.34047e-06
-3.36597e-06
-1.14718e-06
-4.81638e-06
-9.33649e-07
-7.64744e-06
-1.00782e-05
-7.76622e-07
5.31019e-06
-1.39158e-06
6.52516e-06
-1.80859e-06
6.48453e-06
-2.02105e-06
5.58524e-06
-2.16806e-06
4.3688e-06
-2.31787e-06
3.45044e-06
-2.46055e-06
2.67557e-06
-2.54415e-06
1.94883e-06
-2.56277e-06
1.16394e-06
-2.5139e-06
4.17407e-07
-2.41798e-06
-3.49587e-07
-2.24833e-06
-1.02235e-06
-2.04264e-06
-1.63317e-06
-1.8006e-06
-2.16387e-06
-1.51188e-06
-2.63281e-06
-1.20806e-06
-3.01229e-06
-9.81596e-07
-3.59244e-06
-8.44109e-07
-4.95387e-06
-6.99489e-07
-7.79206e-06
-1.07777e-05
-4.60585e-07
5.77077e-06
-8.7171e-07
6.93628e-06
-1.16811e-06
6.78092e-06
-1.33559e-06
5.75272e-06
-1.45897e-06
4.49217e-06
-1.56216e-06
3.55364e-06
-1.6421e-06
2.75551e-06
-1.66981e-06
1.97654e-06
-1.65774e-06
1.15186e-06
-1.60334e-06
3.63007e-07
-1.53483e-06
-4.18094e-07
-1.4204e-06
-1.13678e-06
-1.2853e-06
-1.76827e-06
-1.13709e-06
-2.31208e-06
-1.00694e-06
-2.76296e-06
-8.14772e-07
-3.20445e-06
-6.31845e-07
-3.77537e-06
-5.27363e-07
-5.05835e-06
-5.20687e-07
-7.79874e-06
-1.12983e-05
-2.04267e-07
5.97504e-06
-4.22583e-07
7.1546e-06
-5.85239e-07
6.94358e-06
-6.98864e-07
5.86635e-06
-7.78163e-07
4.57147e-06
-8.19573e-07
3.59505e-06
-8.37605e-07
2.77354e-06
-8.1518e-07
1.95412e-06
-7.78629e-07
1.11531e-06
-7.3105e-07
3.15428e-07
-6.91251e-07
-4.57892e-07
-6.56606e-07
-1.17143e-06
-6.28992e-07
-1.79588e-06
-6.01645e-07
-2.33943e-06
-5.98835e-07
-2.76577e-06
-5.27898e-07
-3.27539e-06
-4.40427e-07
-3.86284e-06
-3.79983e-07
-5.11879e-06
-3.75366e-07
-7.80335e-06
-1.16737e-05
7.50227e-08
5.90002e-06
1.9679e-10
7.22942e-06
-5.93741e-08
7.00315e-06
-1.11985e-07
5.91896e-06
-1.35275e-07
4.59476e-06
-1.33606e-07
3.59338e-06
-9.33983e-08
2.73333e-06
-3.18553e-08
1.89258e-06
2.95504e-08
1.0539e-06
6.73963e-08
2.77582e-07
8.26166e-08
-4.73113e-07
4.90046e-08
-1.13781e-06
-8.28828e-09
-1.73859e-06
-1.36125e-07
-2.21159e-06
-2.11792e-07
-2.69011e-06
-2.74915e-07
-3.21227e-06
-2.10993e-07
-3.92676e-06
-2.06909e-07
-5.12288e-06
-2.98489e-07
-7.71177e-06
-1.19722e-05
3.23226e-07
5.57679e-06
4.54858e-07
7.09779e-06
5.13564e-07
6.94445e-06
4.50928e-07
5.9816e-06
4.27312e-07
4.61837e-06
4.75507e-07
3.54519e-06
5.63932e-07
2.64491e-06
6.49327e-07
1.80718e-06
7.02748e-07
1.00048e-06
7.11376e-07
2.68955e-07
6.60437e-07
-4.22173e-07
5.62299e-07
-1.03968e-06
4.00031e-07
-1.57632e-06
2.2275e-07
-2.03431e-06
6.95196e-08
-2.53687e-06
-9.99988e-08
-3.04275e-06
-6.37399e-08
-3.96302e-06
-1.16446e-07
-5.07017e-06
-2.20153e-07
-7.60806e-06
-1.21924e-05
5.64432e-07
5.01236e-06
8.81821e-07
6.7804e-06
1.05113e-06
6.77513e-06
1.01414e-06
6.01859e-06
9.68346e-07
4.66416e-06
9.97229e-07
3.51631e-06
1.0752e-06
2.56694e-06
1.15582e-06
1.72656e-06
1.19531e-06
9.60993e-07
1.17724e-06
2.8703e-07
1.07859e-06
-3.23526e-07
9.20204e-07
-8.81291e-07
7.07104e-07
-1.36322e-06
4.95446e-07
-1.82266e-06
2.81239e-07
-2.32267e-06
1.22891e-07
-2.8844e-06
1.09972e-07
-3.9501e-06
-2.61626e-08
-4.93404e-06
-1.87199e-07
-7.44703e-06
-1.23796e-05
8.32817e-07
4.17954e-06
1.27376e-06
6.33945e-06
1.56246e-06
6.48644e-06
1.60789e-06
5.97316e-06
1.52243e-06
4.74963e-06
1.51393e-06
3.5248e-06
1.55521e-06
2.52565e-06
1.59085e-06
1.69092e-06
1.58436e-06
9.67481e-07
1.52747e-06
3.43921e-07
1.3965e-06
-1.92559e-07
1.20743e-06
-6.92223e-07
9.78179e-07
-1.13397e-06
7.53122e-07
-1.5976e-06
5.27373e-07
-2.09692e-06
3.83392e-07
-2.74042e-06
2.5151e-07
-3.81822e-06
4.0334e-08
-4.72286e-06
-1.04141e-07
-7.30255e-06
-1.24837e-05
1.0489e-06
3.13064e-06
1.68409e-06
5.70426e-06
2.05491e-06
6.11562e-06
2.22233e-06
5.80574e-06
2.15594e-06
4.81602e-06
2.08926e-06
3.59149e-06
2.05883e-06
2.55608e-06
2.0314e-06
1.71835e-06
1.97111e-06
1.02777e-06
1.87297e-06
4.42063e-07
1.72915e-06
-4.87458e-08
1.53492e-06
-4.97987e-07
1.31191e-06
-9.10963e-07
1.09755e-06
-1.38323e-06
8.87683e-07
-1.88705e-06
7.44525e-07
-2.59726e-06
5.10901e-07
-3.5846e-06
2.48382e-07
-4.46034e-06
3.12033e-08
-7.08537e-06
-1.24525e-05
1.26624e-06
1.8644e-06
1.95665e-06
5.01386e-06
2.4431e-06
5.62917e-06
2.82455e-06
5.42429e-06
2.92611e-06
4.71445e-06
2.87859e-06
3.63901e-06
2.78787e-06
2.6468e-06
2.69736e-06
1.80886e-06
2.58239e-06
1.14274e-06
2.4463e-06
5.78147e-07
2.27919e-06
1.18365e-07
2.09241e-06
-3.11203e-07
1.87846e-06
-6.9701e-07
1.67293e-06
-1.1777e-06
1.45568e-06
-1.6698e-06
1.25312e-06
-2.3947e-06
8.80563e-07
-3.21204e-06
4.82185e-07
-4.06196e-06
1.81113e-07
-6.7843e-06
-1.22714e-05
1.1416e-06
7.22801e-07
2.0534e-06
4.10206e-06
2.71126e-06
4.97131e-06
3.3057e-06
4.82985e-06
3.67524e-06
4.34492e-06
3.80663e-06
3.50762e-06
3.80284e-06
2.6506e-06
3.74378e-06
1.86792e-06
3.63362e-06
1.2529e-06
3.48763e-06
7.24134e-07
3.30307e-06
3.02927e-07
3.10706e-06
-1.15193e-07
2.87028e-06
-4.60232e-07
2.62788e-06
-9.35294e-07
2.34172e-06
-1.38365e-06
1.99304e-06
-2.04602e-06
1.42777e-06
-2.64677e-06
8.41078e-07
-3.47528e-06
4.18996e-07
-6.36222e-06
-1.18524e-05
5.5319e-07
1.69611e-07
1.68636e-06
2.96889e-06
2.67279e-06
3.98488e-06
3.53729e-06
3.96535e-06
4.22225e-06
3.65995e-06
4.66102e-06
3.06885e-06
4.89429e-06
2.41733e-06
4.98408e-06
1.77813e-06
4.97075e-06
1.26623e-06
4.90479e-06
7.90095e-07
4.75538e-06
4.52336e-07
4.54484e-06
9.53469e-08
4.26973e-06
-1.85121e-07
3.92826e-06
-5.93824e-07
3.45605e-06
-9.11435e-07
2.84798e-06
-1.43795e-06
2.05027e-06
-1.84906e-06
1.2446e-06
-2.66961e-06
7.63392e-07
-5.88101e-06
-1.1089e-05
-2.56589e-07
4.262e-07
9.71316e-07
1.74098e-06
2.15696e-06
2.79923e-06
3.32179e-06
2.80052e-06
4.30628e-06
2.67546e-06
5.07106e-06
2.30407e-06
5.59194e-06
1.89644e-06
5.9313e-06
1.43878e-06
6.08794e-06
1.10958e-06
6.12002e-06
7.58015e-07
6.02515e-06
5.47204e-07
5.84642e-06
2.7408e-07
5.53995e-06
1.21343e-07
5.08869e-06
-1.42564e-07
4.49334e-06
-3.16085e-07
3.71263e-06
-6.57241e-07
2.72892e-06
-8.65346e-07
1.9242e-06
-1.86488e-06
1.32924e-06
-5.28605e-06
-9.75975e-06
-1.21684e-06
1.64304e-06
-3.50245e-07
8.74388e-07
1.15465e-06
1.29434e-06
2.59696e-06
1.35821e-06
3.87048e-06
1.40194e-06
4.9206e-06
1.25396e-06
5.69571e-06
1.12133e-06
6.244e-06
8.90482e-07
6.58486e-06
7.68726e-07
6.75201e-06
5.90864e-07
6.76864e-06
5.3057e-07
6.64766e-06
3.95064e-07
6.40489e-06
3.64105e-07
6.02415e-06
2.38177e-07
5.51403e-06
1.94038e-07
4.86564e-06
-8.85027e-09
4.23345e-06
-2.33159e-07
3.69679e-06
-1.32822e-06
2.56559e-06
-4.15485e-06
-7.19416e-06
1.64304e-06
2.51743e-06
3.81176e-06
5.16998e-06
6.57192e-06
7.82588e-06
8.94722e-06
9.8377e-06
1.06064e-05
1.11973e-05
1.17279e-05
1.21229e-05
1.2487e-05
1.27252e-05
1.29192e-05
1.29104e-05
1.26772e-05
1.1349e-05
7.19416e-06
)
;

boundaryField
{
    movingWall
    {
        type            calculated;
        value           uniform 0;
    }
    fixedWalls
    {
        type            calculated;
        value           uniform 0;
    }
    frontAndBack
    {
        type            empty;
        value           nonuniform 0();
    }
}


// ************************************************************************* //
