/*--------------------------------*- C++ -*----------------------------------*\
| =========                 |                                                 |
| \\      /  F ield         | OpenFOAM: The Open Source CFD Toolbox           |
|  \\    /   O peration     | Version:  5.0                                   |
|   \\  /    A nd           | Web:      www.OpenFOAM.org                      |
|    \\/     M anipulation  |                                                 |
\*---------------------------------------------------------------------------*/
FoamFile
{
    version     2.0;
    format      ascii;
    class       volVectorField;
    location    "6.5";
    object      U;
}
// * * * * * * * * * * * * * * * * * * * * * * * * * * * * * * * * * * * * * //

dimensions      [0 1 -1 0 0 0 0];

internalField   nonuniform List<vector> 
400
(
(0.00248052 -0.00394674 0)
(0.00803192 -0.00205783 0)
(-0.00175586 0.00146852 0)
(-0.0133296 0.00873438 0)
(-0.0557281 0.0183911 0)
(-0.0889169 0.0147442 0)
(-0.114907 0.0136137 0)
(-0.134769 0.0110261 0)
(-0.148739 0.00906829 0)
(-0.159056 0.00699032 0)
(-0.165237 0.00523522 0)
(-0.16872 0.00372526 0)
(-0.169868 0.00219409 0)
(-0.167742 -0.00024343 0)
(-0.160919 -0.00247136 0)
(-0.147873 -0.00708845 0)
(-0.126648 -0.0127112 0)
(-0.0957163 -0.019273 0)
(-0.0581237 -0.0198732 0)
(-0.0120774 -0.00551124 0)
(-0.000118958 -0.00803743 0)
(-0.00890288 0.00599681 0)
(-0.0330674 0.02589 0)
(-0.0714978 0.0466939 0)
(-0.101155 0.0451322 0)
(-0.121081 0.0391778 0)
(-0.137165 0.0322463 0)
(-0.15044 0.0224461 0)
(-0.159335 0.0162398 0)
(-0.165184 0.00899815 0)
(-0.167442 0.00423049 0)
(-0.167586 -0.00137802 0)
(-0.165026 -0.00541003 0)
(-0.161427 -0.0107269 0)
(-0.154268 -0.0164531 0)
(-0.14341 -0.0263576 0)
(-0.125674 -0.0403789 0)
(-0.100521 -0.0608437 0)
(-0.0688151 -0.0787556 0)
(-0.018759 -0.057589 0)
(-0.00674475 0.00676236 0)
(-0.0309603 0.0355613 0)
(-0.0631266 0.0605342 0)
(-0.0905711 0.0696935 0)
(-0.107542 0.0629731 0)
(-0.118596 0.0534431 0)
(-0.128461 0.0404324 0)
(-0.131985 0.0316743 0)
(-0.131536 0.0218862 0)
(-0.130568 0.0138681 0)
(-0.126939 0.00624765 0)
(-0.12398 -0.000126804 0)
(-0.120049 -0.00612234 0)
(-0.115589 -0.0116467 0)
(-0.110504 -0.0189159 0)
(-0.104336 -0.0297586 0)
(-0.094277 -0.0493835 0)
(-0.0777209 -0.0789785 0)
(-0.0596325 -0.110733 0)
(-0.0207841 -0.112821 0)
(-0.0104052 0.0313703 0)
(-0.0412067 0.0644968 0)
(-0.0696595 0.0844291 0)
(-0.0871465 0.0856464 0)
(-0.0962385 0.074086 0)
(-0.100416 0.0603237 0)
(-0.100257 0.045478 0)
(-0.0993256 0.0327971 0)
(-0.101672 0.0203874 0)
(-0.0999759 0.0107917 0)
(-0.0984285 0.00157502 0)
(-0.0934952 -0.0056347 0)
(-0.0884432 -0.0127002 0)
(-0.0815804 -0.0182614 0)
(-0.0753775 -0.0249648 0)
(-0.070124 -0.0339835 0)
(-0.0651266 -0.0519851 0)
(-0.0522297 -0.087493 0)
(-0.0442165 -0.131104 0)
(-0.0154271 -0.143945 0)
(-0.0102232 0.0553683 0)
(-0.0419544 0.0885977 0)
(-0.0609893 0.100803 0)
(-0.0732815 0.0963195 0)
(-0.0762276 0.0797028 0)
(-0.0768339 0.0631646 0)
(-0.078333 0.0467425 0)
(-0.0822423 0.0336511 0)
(-0.0845889 0.0207906 0)
(-0.0846272 0.00976025 0)
(-0.0825471 -0.00161896 0)
(-0.0783992 -0.0112289 0)
(-0.0719418 -0.020591 0)
(-0.0647143 -0.028005 0)
(-0.0558884 -0.035113 0)
(-0.0490744 -0.0433231 0)
(-0.0465717 -0.0578018 0)
(-0.03416 -0.0889663 0)
(-0.0381169 -0.145817 0)
(-0.00633989 -0.174829 0)
(-0.00887673 0.0787174 0)
(-0.0346466 0.108743 0)
(-0.0473915 0.11469 0)
(-0.0573375 0.103985 0)
(-0.0569267 0.0834465 0)
(-0.0589391 0.0653121 0)
(-0.0629233 0.0491825 0)
(-0.0674222 0.0359927 0)
(-0.0689973 0.0220635 0)
(-0.0693368 0.00939046 0)
(-0.0666298 -0.00414327 0)
(-0.0635997 -0.0156299 0)
(-0.0575093 -0.0268788 0)
(-0.0515329 -0.0360785 0)
(-0.0438407 -0.0438228 0)
(-0.0342629 -0.0513716 0)
(-0.0339339 -0.0648346 0)
(-0.0186516 -0.0935079 0)
(-0.0285902 -0.149852 0)
(-0.00321323 -0.192073 0)
(-0.00675993 0.0978706 0)
(-0.0253191 0.122879 0)
(-0.0345084 0.124331 0)
(-0.0415937 0.108852 0)
(-0.040293 0.0856196 0)
(-0.0440281 0.0674053 0)
(-0.0480624 0.0518559 0)
(-0.0512403 0.0376775 0)
(-0.051738 0.0225439 0)
(-0.0517777 0.00828376 0)
(-0.048938 -0.00672918 0)
(-0.046741 -0.0198079 0)
(-0.0422097 -0.0319771 0)
(-0.0373365 -0.0427201 0)
(-0.0338233 -0.051678 0)
(-0.0245143 -0.0584766 0)
(-0.0266236 -0.0701649 0)
(-0.01088 -0.0978085 0)
(-0.0253407 -0.155002 0)
(0.00188547 -0.209751 0)
(-0.00344829 0.110423 0)
(-0.0157486 0.13448 0)
(-0.0222553 0.132663 0)
(-0.0275785 0.113411 0)
(-0.0261332 0.08909 0)
(-0.030105 0.0705018 0)
(-0.0325487 0.0545237 0)
(-0.034126 0.0392571 0)
(-0.0335947 0.0230917 0)
(-0.0334007 0.00782013 0)
(-0.0309962 -0.00768861 0)
(-0.029198 -0.0217231 0)
(-0.0269942 -0.0340969 0)
(-0.0226398 -0.044997 0)
(-0.0233539 -0.0547372 0)
(-0.0147299 -0.0629018 0)
(-0.0203951 -0.0737652 0)
(-0.00289455 -0.0992182 0)
(-0.0206172 -0.154912 0)
(0.00342998 -0.21903 0)
(-0.00080639 0.118557 0)
(-0.00789643 0.140801 0)
(-0.01109 0.137004 0)
(-0.0145516 0.116157 0)
(-0.0131443 0.0904384 0)
(-0.016418 0.0715739 0)
(-0.017012 0.055558 0)
(-0.0172607 0.0395989 0)
(-0.0159215 0.0229112 0)
(-0.0154547 0.006843 0)
(-0.0140176 -0.00885311 0)
(-0.0126454 -0.0233785 0)
(-0.0134406 -0.0361451 0)
(-0.0102855 -0.0469384 0)
(-0.0149142 -0.0557235 0)
(-0.00694858 -0.0652183 0)
(-0.0165381 -0.0766545 0)
(0.00109904 -0.102087 0)
(-0.0187251 -0.155831 0)
(0.00670381 -0.229936 0)
(0.00272876 0.119758 0)
(5.85296e-05 0.145414 0)
(-0.000302706 0.140775 0)
(-0.00280853 0.118792 0)
(-0.00140277 0.0930218 0)
(-0.00336976 0.0732343 0)
(-0.00234967 0.0563766 0)
(-0.0015531 0.0395611 0)
(0.00022058 0.0225104 0)
(0.0010897 0.00631356 0)
(0.00140567 -0.0089959 0)
(0.00242399 -0.0225984 0)
(-0.000765997 -0.0348832 0)
(0.000591901 -0.04498 0)
(-0.00687457 -0.0541602 0)
(-0.000113424 -0.0644109 0)
(-0.0129446 -0.0773452 0)
(0.00648599 -0.101135 0)
(-0.0169475 -0.15425 0)
(0.00772532 -0.23554 0)
(0.00572966 0.116642 0)
(0.00665656 0.14474 0)
(0.00971684 0.140425 0)
(0.00863247 0.119236 0)
(0.00971737 0.0921391 0)
(0.00844046 0.0714001 0)
(0.0105453 0.0542752 0)
(0.0119716 0.0376263 0)
(0.0135591 0.0210126 0)
(0.0145322 0.0055728 0)
(0.013561 -0.00893442 0)
(0.0135781 -0.0215296 0)
(0.00897801 -0.0327773 0)
(0.00855139 -0.0419718 0)
(-0.00110557 -0.0518127 0)
(0.00506133 -0.0620343 0)
(-0.0106195 -0.0792078 0)
(0.00951367 -0.102065 0)
(-0.0163382 -0.15349 0)
(0.0102968 -0.242792 0)
(0.00749266 0.108161 0)
(0.0139443 0.141696 0)
(0.0193086 0.139273 0)
(0.0197021 0.120829 0)
(0.0205525 0.0935048 0)
(0.0194462 0.0712904 0)
(0.0210605 0.0529317 0)
(0.0224735 0.0362289 0)
(0.0233995 0.0203447 0)
(0.0244025 0.00594064 0)
(0.0222748 -0.00716659 0)
(0.0213546 -0.0188685 0)
(0.0157843 -0.0289741 0)
(0.0139919 -0.0381778 0)
(0.00402472 -0.0480671 0)
(0.00954904 -0.0586599 0)
(-0.00673378 -0.0789452 0)
(0.0135759 -0.0988253 0)
(-0.0162716 -0.151648 0)
(0.0119137 -0.246186 0)
(0.011055 0.0962855 0)
(0.0202816 0.133252 0)
(0.028445 0.133558 0)
(0.030881 0.120643 0)
(0.0317927 0.0919511 0)
(0.0304798 0.0686393 0)
(0.0310964 0.0496443 0)
(0.0320069 0.0332657 0)
(0.0315576 0.0186267 0)
(0.0319329 0.00590222 0)
(0.0288738 -0.00541369 0)
(0.0272781 -0.0157691 0)
(0.0213413 -0.0248476 0)
(0.0190033 -0.0339277 0)
(0.00978462 -0.0439661 0)
(0.0139713 -0.0566192 0)
(-0.00212411 -0.0783987 0)
(0.0161413 -0.0975719 0)
(-0.0167104 -0.14882 0)
(0.0153302 -0.249697 0)
(0.0126153 0.0749039 0)
(0.0266678 0.123922 0)
(0.038525 0.127434 0)
(0.0416944 0.119595 0)
(0.0441682 0.0965748 0)
(0.0429146 0.0704786 0)
(0.0418525 0.0502201 0)
(0.0416925 0.0338873 0)
(0.0399199 0.0199881 0)
(0.0394091 0.0080105 0)
(0.0355011 -0.00212936 0)
(0.0338216 -0.0118088 0)
(0.0277043 -0.0205395 0)
(0.0258392 -0.0300182 0)
(0.0175084 -0.0403759 0)
(0.0204504 -0.0541494 0)
(0.0053295 -0.0750942 0)
(0.0205051 -0.0923636 0)
(-0.0154309 -0.144003 0)
(0.0190293 -0.249421 0)
(0.0169194 0.0542574 0)
(0.0309441 0.107743 0)
(0.0454093 0.117785 0)
(0.0523953 0.112345 0)
(0.056822 0.0960897 0)
(0.057968 0.0712145 0)
(0.0567738 0.0495822 0)
(0.0560604 0.0327909 0)
(0.0527678 0.0196724 0)
(0.0513982 0.00874854 0)
(0.0467246 -0.000165568 0)
(0.044971 -0.00903537 0)
(0.0386121 -0.0170441 0)
(0.0374482 -0.0266203 0)
(0.0294493 -0.0366039 0)
(0.0307358 -0.0511463 0)
(0.0158654 -0.0689377 0)
(0.0255637 -0.0874057 0)
(-0.0130004 -0.140111 0)
(0.0246753 -0.248877 0)
(0.011881 0.017858 0)
(0.0339387 0.0923881 0)
(0.0495124 0.108069 0)
(0.0601962 0.105535 0)
(0.0685319 0.0946237 0)
(0.074176 0.0751514 0)
(0.0755187 0.0550943 0)
(0.0767377 0.0376614 0)
(0.0738512 0.0242636 0)
(0.0729215 0.0131774 0)
(0.0673743 0.00446822 0)
(0.0656981 -0.00394233 0)
(0.0584103 -0.011404 0)
(0.0571194 -0.0210571 0)
(0.048293 -0.0305588 0)
(0.0468585 -0.0445592 0)
(0.0310391 -0.0581954 0)
(0.0325954 -0.0758552 0)
(-0.00761331 -0.131855 0)
(0.0315154 -0.246273 0)
(-0.00153876 0.00822484 0)
(0.0252037 0.0664857 0)
(0.0461688 0.0889751 0)
(0.0620209 0.0894037 0)
(0.0758016 0.0822093 0)
(0.0880091 0.0686154 0)
(0.0940772 0.0535468 0)
(0.0998684 0.0387333 0)
(0.0993167 0.0262775 0)
(0.100899 0.0153302 0)
(0.0961371 0.00711317 0)
(0.0951788 -0.00107704 0)
(0.0871667 -0.00748888 0)
(0.0843456 -0.0159759 0)
(0.0730564 -0.0233804 0)
(0.0670805 -0.0347202 0)
(0.0484314 -0.0449581 0)
(0.0397548 -0.0627011 0)
(-0.000287458 -0.128042 0)
(0.0411778 -0.244026 0)
(-0.0185167 -0.00165896 0)
(0.00969848 0.0533125 0)
(0.0332526 0.0738543 0)
(0.0549361 0.0743096 0)
(0.0739696 0.069459 0)
(0.0933403 0.0590769 0)
(0.104865 0.047697 0)
(0.116263 0.0365311 0)
(0.119538 0.027873 0)
(0.124064 0.0189099 0)
(0.121592 0.0129116 0)
(0.120878 0.00578655 0)
(0.113399 0.00130154 0)
(0.108643 -0.00568002 0)
(0.0954715 -0.0105167 0)
(0.086225 -0.0197034 0)
(0.0643865 -0.0261664 0)
(0.0487195 -0.0465705 0)
(0.0152312 -0.121923 0)
(0.0541895 -0.232792 0)
(-0.0251013 0.0230262 0)
(-0.0202595 0.0187679 0)
(0.0089752 0.038336 0)
(0.0380138 0.0395388 0)
(0.0627927 0.0391675 0)
(0.0881321 0.0347954 0)
(0.104775 0.0299138 0)
(0.120025 0.022749 0)
(0.128064 0.0180406 0)
(0.13459 0.0126474 0)
(0.136068 0.00989546 0)
(0.135502 0.00571546 0)
(0.130891 0.00397663 0)
(0.125968 0.00055314 0)
(0.114539 -0.00142477 0)
(0.105471 -0.00657489 0)
(0.0841851 -0.0117067 0)
(0.0748076 -0.0375876 0)
(0.0552991 -0.111112 0)
(0.0787034 -0.183598 0)
(0.0363015 0.0331564 0)
(0.0406819 0.0193094 0)
(0.0571763 0.0176962 0)
(0.0904484 0.0174046 0)
(0.114588 0.0193551 0)
(0.143717 0.0178173 0)
(0.165033 0.0173929 0)
(0.187917 0.0147177 0)
(0.203519 0.0139992 0)
(0.219517 0.0116745 0)
(0.229582 0.0114207 0)
(0.239953 0.00948268 0)
(0.245981 0.00964782 0)
(0.251861 0.0079099 0)
(0.255294 0.0083534 0)
(0.257154 0.00625565 0)
(0.253515 0.00492647 0)
(0.240891 -0.00197428 0)
(0.202889 -0.0143634 0)
(0.148887 -0.033487 0)
)
;

boundaryField
{
    movingWall
    {
        type            fixedValue;
        value           uniform (1 0 0);
    }
    fixedWalls
    {
        type            noSlip;
    }
    frontAndBack
    {
        type            empty;
    }
}


// ************************************************************************* //
