/*--------------------------------*- C++ -*----------------------------------*\
| =========                 |                                                 |
| \\      /  F ield         | OpenFOAM: The Open Source CFD Toolbox           |
|  \\    /   O peration     | Version:  5.0                                   |
|   \\  /    A nd           | Web:      www.OpenFOAM.org                      |
|    \\/     M anipulation  |                                                 |
\*---------------------------------------------------------------------------*/
FoamFile
{
    version     2.0;
    format      ascii;
    class       volScalarField;
    location    "6.5";
    object      yPlus;
}
// * * * * * * * * * * * * * * * * * * * * * * * * * * * * * * * * * * * * * //

dimensions      [0 0 0 0 0 0 0];

internalField   uniform 0;

boundaryField
{
    movingWall
    {
        type            calculated;
        value           nonuniform List<scalar> 
20
(
15.5263
15.488
15.3541
15.0808
14.8797
14.6327
14.4495
14.2497
14.1121
13.9693
13.879
13.785
13.7303
13.6764
13.6451
13.6278
13.6611
13.776
14.1177
14.5926
)
;
    }
    fixedWalls
    {
        type            calculated;
        value           nonuniform List<scalar> 
60
(
1.07953
1.4176
1.54523
2.8745
3.75181
4.45018
4.95237
5.2554
5.44426
5.47241
5.4033
5.20625
4.92235
4.35772
3.76942
2.31566
1.44634
2.15586
2.91817
3.50587
1.82177
3.89125
5.35536
6.01601
6.61332
6.93
7.24154
7.40028
7.58343
7.67572
7.79439
7.84975
7.90834
7.908
7.90723
7.87847
7.86568
7.73007
7.06675
6.1767
1.07953
1.43973
0.756475
1.99602
3.83029
4.74687
5.37844
5.81419
6.10359
6.30891
6.42884
6.4954
6.51694
6.47577
6.34307
6.08364
5.64102
4.94058
3.91878
1.82177
)
;
    }
    frontAndBack
    {
        type            empty;
    }
}


// ************************************************************************* //
