/*--------------------------------*- C++ -*----------------------------------*\
| =========                 |                                                 |
| \\      /  F ield         | OpenFOAM: The Open Source CFD Toolbox           |
|  \\    /   O peration     | Version:  5.0                                   |
|   \\  /    A nd           | Web:      www.OpenFOAM.org                      |
|    \\/     M anipulation  |                                                 |
\*---------------------------------------------------------------------------*/
FoamFile
{
    version     2.0;
    format      ascii;
    class       volScalarField;
    location    "10";
    object      k;
}
// * * * * * * * * * * * * * * * * * * * * * * * * * * * * * * * * * * * * * //

dimensions      [0 2 -2 0 0 0 0];

internalField   nonuniform List<scalar> 
400
(
3.35487e-10
1.25744e-09
8.75692e-09
5.15899e-08
1.48227e-07
2.74814e-07
4.09012e-07
5.45515e-07
6.80059e-07
8.2206e-07
9.70949e-07
1.15262e-06
1.35966e-06
1.45112e-06
1.46366e-06
1.29039e-06
8.78486e-07
4.74409e-07
2.41407e-07
1.09902e-07
3.74777e-09
3.56404e-08
1.23816e-07
3.97428e-07
1.08686e-06
2.48372e-06
4.61829e-06
7.40329e-06
1.01979e-05
1.30801e-05
1.51381e-05
1.64736e-05
1.69287e-05
1.67273e-05
1.45761e-05
1.19002e-05
7.49874e-06
3.25845e-06
1.29463e-06
4.44694e-07
2.99369e-08
2.04197e-07
6.3872e-07
1.96832e-06
5.57183e-06
1.27491e-05
2.43667e-05
3.94189e-05
5.36756e-05
6.35019e-05
6.9115e-05
7.13772e-05
7.15172e-05
6.55239e-05
5.8409e-05
4.58306e-05
3.07164e-05
1.22697e-05
3.84522e-06
8.93749e-07
8.79344e-08
6.14112e-07
2.02854e-06
6.55967e-06
1.89877e-05
4.47395e-05
7.36065e-05
9.12851e-05
0.00010431
0.000110716
0.000114344
0.000115726
0.000116028
0.000114251
0.000109747
0.000101071
7.97783e-05
3.58383e-05
9.29704e-06
1.30879e-06
2.39394e-07
1.67248e-06
5.54589e-06
1.77448e-05
4.50428e-05
7.6455e-05
9.42488e-05
0.000103296
0.000109703
0.000112663
0.000115914
0.000117566
0.000121393
0.000123918
0.000125073
0.000123568
0.000115487
7.15865e-05
1.75906e-05
1.67882e-06
3.57789e-07
2.83527e-06
9.97776e-06
3.00448e-05
6.45466e-05
8.70525e-05
9.71227e-05
0.000101816
0.000103614
0.000102736
0.000101983
0.000104269
0.000112133
0.000122297
0.000128512
0.000130352
0.000130128
9.79494e-05
2.80778e-05
1.98963e-06
5.18595e-07
4.38807e-06
1.51901e-05
4.15256e-05
7.51966e-05
8.99147e-05
9.49418e-05
9.53963e-05
8.84335e-05
8.26163e-05
8.03965e-05
8.06276e-05
9.05862e-05
0.000107655
0.000125406
0.000131746
0.000133943
0.00011049
3.84082e-05
2.22837e-06
5.51313e-07
5.33583e-06
1.81392e-05
4.81534e-05
7.96561e-05
8.92717e-05
9.04331e-05
8.45741e-05
7.30396e-05
6.51516e-05
6.1918e-05
6.16124e-05
7.02747e-05
8.76019e-05
0.000115701
0.000129256
0.000133998
0.000116024
4.85412e-05
2.41202e-06
5.23165e-07
5.79171e-06
2.02278e-05
5.4319e-05
8.1846e-05
8.80118e-05
8.66938e-05
7.72959e-05
6.38864e-05
5.58931e-05
5.30022e-05
5.30652e-05
6.05248e-05
7.5777e-05
0.000101848
0.000123906
0.000125524
0.000117552
5.40845e-05
2.52751e-06
4.32161e-07
5.63756e-06
1.99517e-05
5.4538e-05
8.33793e-05
8.81573e-05
8.49294e-05
7.41299e-05
6.12528e-05
5.27754e-05
4.95897e-05
5.02657e-05
5.62736e-05
7.0377e-05
9.0543e-05
0.000121459
0.000117854
0.000116948
5.82049e-05
2.64742e-06
3.47122e-07
5.18448e-06
1.87684e-05
5.29542e-05
8.2846e-05
8.79178e-05
8.48557e-05
7.49288e-05
6.27399e-05
5.42853e-05
4.983e-05
5.0267e-05
5.51493e-05
6.87123e-05
8.51667e-05
0.000116562
0.000109368
0.000111243
5.97438e-05
2.73753e-06
2.80138e-07
4.2821e-06
1.61269e-05
4.816e-05
8.04261e-05
8.71257e-05
8.5109e-05
7.74982e-05
6.64943e-05
5.84633e-05
5.36876e-05
5.43722e-05
5.81911e-05
6.91019e-05
8.37096e-05
0.000107742
0.00010196
0.000108435
6.00145e-05
2.86184e-06
2.19209e-07
3.15651e-06
1.26141e-05
4.08252e-05
7.45772e-05
8.47495e-05
8.43202e-05
8.09972e-05
7.34192e-05
6.63271e-05
6.13888e-05
6.20266e-05
6.54669e-05
7.55578e-05
8.59326e-05
0.000103224
9.67678e-05
0.00010115
5.6253e-05
2.99643e-06
1.59337e-07
2.0458e-06
8.68779e-06
2.76005e-05
6.51848e-05
7.97796e-05
8.19735e-05
8.07705e-05
7.7867e-05
7.42946e-05
7.13267e-05
7.21809e-05
7.50891e-05
8.28791e-05
8.78738e-05
9.59616e-05
9.00005e-05
9.53742e-05
5.11622e-05
3.08232e-06
9.95895e-08
1.1378e-06
5.26834e-06
1.67678e-05
4.62101e-05
6.93681e-05
7.63078e-05
7.82101e-05
7.77346e-05
7.79148e-05
7.8461e-05
8.01581e-05
8.23979e-05
8.65272e-05
8.8578e-05
9.22592e-05
8.61122e-05
8.59688e-05
4.30698e-05
3.08442e-06
4.64516e-08
5.48011e-07
2.74098e-06
8.94865e-06
2.56432e-05
4.79031e-05
6.29031e-05
6.98527e-05
7.28713e-05
7.61405e-05
7.81365e-05
8.23164e-05
8.46993e-05
8.703e-05
8.66087e-05
8.44404e-05
7.52382e-05
7.20084e-05
3.4368e-05
2.80797e-06
1.50706e-08
2.55533e-07
1.29763e-06
4.1825e-06
1.10503e-05
2.5536e-05
3.72467e-05
4.7992e-05
5.42554e-05
6.08818e-05
6.5623e-05
6.90014e-05
7.30525e-05
7.27859e-05
7.0538e-05
6.46193e-05
5.73587e-05
5.50255e-05
2.4411e-05
2.41695e-06
9.04775e-09
1.31343e-07
5.89935e-07
1.79507e-06
4.349e-06
1.01382e-05
1.69682e-05
2.26305e-05
2.76467e-05
2.99572e-05
3.30868e-05
3.40282e-05
3.49389e-05
3.48751e-05
3.53113e-05
3.67503e-05
4.16007e-05
3.84289e-05
1.55466e-05
1.89118e-06
2.62734e-08
1.43757e-07
4.54105e-07
1.00948e-06
2.18922e-06
3.62405e-06
6.74168e-06
8.25913e-06
1.12685e-05
1.25321e-05
1.5155e-05
1.6579e-05
1.97453e-05
2.19142e-05
2.65775e-05
3.14466e-05
3.69685e-05
2.9233e-05
8.51085e-06
1.2736e-06
1.00656e-08
2.37238e-08
6.68622e-08
1.2463e-07
2.72515e-07
3.97139e-07
7.14275e-07
8.42013e-07
1.11504e-06
1.18992e-06
1.34898e-06
1.3776e-06
1.45252e-06
1.43539e-06
1.43792e-06
1.38287e-06
1.37254e-06
1.33068e-06
1.16974e-06
7.4189e-07
)
;

boundaryField
{
    movingWall
    {
        type            kqRWallFunction;
        value           nonuniform List<scalar> 
20
(
1.00656e-08
2.37238e-08
6.68622e-08
1.2463e-07
2.72515e-07
3.97139e-07
7.14275e-07
8.42013e-07
1.11504e-06
1.18992e-06
1.34898e-06
1.3776e-06
1.45252e-06
1.43539e-06
1.43792e-06
1.38287e-06
1.37254e-06
1.33068e-06
1.16974e-06
7.4189e-07
)
;
    }
    fixedWalls
    {
        type            kqRWallFunction;
        value           nonuniform List<scalar> 
60
(
3.35487e-10
3.74777e-09
2.99369e-08
8.79344e-08
2.39394e-07
3.57789e-07
5.18595e-07
5.51313e-07
5.23165e-07
4.32161e-07
3.47122e-07
2.80138e-07
2.19209e-07
1.59337e-07
9.95895e-08
4.64516e-08
1.50706e-08
9.04775e-09
2.62734e-08
1.00656e-08
1.09902e-07
4.44694e-07
8.93749e-07
1.30879e-06
1.67882e-06
1.98963e-06
2.22837e-06
2.41202e-06
2.52751e-06
2.64742e-06
2.73753e-06
2.86184e-06
2.99643e-06
3.08232e-06
3.08442e-06
2.80797e-06
2.41695e-06
1.89118e-06
1.2736e-06
7.4189e-07
3.35487e-10
1.25744e-09
8.75692e-09
5.15899e-08
1.48227e-07
2.74814e-07
4.09012e-07
5.45515e-07
6.80059e-07
8.2206e-07
9.70949e-07
1.15262e-06
1.35966e-06
1.45112e-06
1.46366e-06
1.29039e-06
8.78486e-07
4.74409e-07
2.41407e-07
1.09902e-07
)
;
    }
    frontAndBack
    {
        type            empty;
    }
}


// ************************************************************************* //
