/*--------------------------------*- C++ -*----------------------------------*\
| =========                 |                                                 |
| \\      /  F ield         | OpenFOAM: The Open Source CFD Toolbox           |
|  \\    /   O peration     | Version:  5.0                                   |
|   \\  /    A nd           | Web:      www.OpenFOAM.org                      |
|    \\/     M anipulation  |                                                 |
\*---------------------------------------------------------------------------*/
FoamFile
{
    version     2.0;
    format      ascii;
    class       volScalarField;
    location    "10";
    object      nut;
}
// * * * * * * * * * * * * * * * * * * * * * * * * * * * * * * * * * * * * * //

dimensions      [0 2 -1 0 0 0 0];

internalField   nonuniform List<scalar> 
400
(
2.62099e-12
9.82375e-12
6.84134e-11
4.03046e-10
1.15802e-09
2.14698e-09
3.19541e-09
4.26184e-09
5.31296e-09
6.42234e-09
7.58554e-09
9.00484e-09
1.06223e-08
1.13369e-08
1.14348e-08
1.00811e-08
6.86318e-09
3.70632e-09
1.88599e-09
8.58608e-10
2.92795e-11
6.27687e-10
1.55442e-09
4.63214e-09
1.36734e-08
3.69577e-08
8.06287e-08
1.57305e-07
2.44905e-07
3.58605e-07
4.40901e-07
4.92442e-07
4.85961e-07
4.53136e-07
3.62075e-07
2.63217e-07
1.40445e-07
4.88469e-08
1.40556e-08
3.47417e-09
2.33882e-10
3.75857e-09
1.06614e-08
3.49787e-08
1.30944e-07
3.76452e-07
8.94939e-07
1.64786e-06
2.4477e-06
3.02503e-06
3.347e-06
3.46239e-06
3.32021e-06
2.86276e-06
2.27235e-06
1.50691e-06
7.91396e-07
2.27467e-07
4.54978e-08
6.98241e-09
6.86988e-10
1.24626e-08
4.30672e-08
1.7528e-07
7.23831e-07
2.12502e-06
4.31214e-06
6.02045e-06
7.74769e-06
8.74231e-06
9.35128e-06
9.55668e-06
9.27868e-06
8.38444e-06
7.03822e-06
5.23013e-06
3.02827e-06
8.9071e-07
1.26718e-07
1.02249e-08
1.87027e-09
3.83684e-08
1.48033e-07
6.76195e-07
2.46621e-06
5.24755e-06
8.19185e-06
1.03035e-05
1.26335e-05
1.3966e-05
1.49118e-05
1.52528e-05
1.48684e-05
1.35745e-05
1.15434e-05
8.83414e-06
5.68981e-06
2.17571e-06
2.68309e-07
1.31158e-08
2.79523e-09
7.25129e-08
3.26701e-07
1.52117e-06
4.69796e-06
8.06253e-06
1.16713e-05
1.42888e-05
1.70507e-05
1.83378e-05
1.89437e-05
1.95161e-05
1.95219e-05
1.8628e-05
1.60905e-05
1.25553e-05
8.44361e-06
3.73744e-06
4.85313e-07
1.5544e-08
4.05152e-09
1.25181e-07
5.85111e-07
2.6157e-06
6.78322e-06
1.04679e-05
1.46067e-05
1.74016e-05
1.91772e-05
1.96115e-05
1.99239e-05
2.01058e-05
2.04956e-05
2.06148e-05
1.89831e-05
1.51262e-05
1.02179e-05
4.79741e-06
7.24116e-07
1.74091e-08
4.30713e-09
1.61513e-07
8.02781e-07
3.49428e-06
8.21145e-06
1.21688e-05
1.66107e-05
1.87476e-05
1.96308e-05
1.94378e-05
1.93937e-05
1.94223e-05
1.99841e-05
2.07957e-05
2.09966e-05
1.71712e-05
1.20799e-05
5.82457e-06
1.00352e-06
1.88439e-08
4.08723e-09
1.89964e-07
9.72813e-07
4.29795e-06
9.22709e-06
1.33604e-05
1.78406e-05
1.93877e-05
1.96125e-05
1.90917e-05
1.88945e-05
1.89089e-05
1.94874e-05
2.03071e-05
2.06426e-05
1.77751e-05
1.23686e-05
6.35968e-06
1.18454e-06
1.97462e-08
3.37626e-09
1.84963e-07
1.03018e-06
4.46604e-06
9.57678e-06
1.38288e-05
1.80675e-05
1.95265e-05
1.97244e-05
1.90638e-05
1.87315e-05
1.87161e-05
1.91871e-05
2.00648e-05
1.97866e-05
1.83164e-05
1.25988e-05
6.81071e-06
1.35924e-06
2.0683e-08
2.71189e-09
1.61258e-07
9.80254e-07
4.29277e-06
9.37792e-06
1.35961e-05
1.77211e-05
1.9413e-05
1.97375e-05
1.92315e-05
1.87807e-05
1.87347e-05
1.90606e-05
1.99607e-05
1.91301e-05
1.79258e-05
1.21019e-05
6.68607e-06
1.45429e-06
2.1387e-08
2.18858e-09
1.17616e-07
8.24295e-07
3.78489e-06
8.7547e-06
1.28827e-05
1.68303e-05
1.90269e-05
1.95779e-05
1.93842e-05
1.89751e-05
1.89432e-05
1.90272e-05
1.95214e-05
1.86815e-05
1.6659e-05
1.14132e-05
6.60043e-06
1.51402e-06
2.23581e-08
1.71257e-09
7.16899e-08
6.02669e-07
3.01923e-06
7.51196e-06
1.14558e-05
1.49392e-05
1.77714e-05
1.90069e-05
1.92587e-05
1.91035e-05
1.90595e-05
1.89613e-05
1.90491e-05
1.73145e-05
1.52238e-05
1.06232e-05
6.15873e-06
1.4407e-06
2.34096e-08
1.24482e-09
3.73091e-08
3.55746e-07
1.84446e-06
5.93773e-06
9.59126e-06
1.27375e-05
1.54504e-05
1.74004e-05
1.83762e-05
1.86415e-05
1.85593e-05
1.82129e-05
1.76986e-05
1.56003e-05
1.32494e-05
9.34202e-06
5.57279e-06
1.2934e-06
2.40806e-08
7.78043e-10
1.74434e-08
1.78715e-07
9.54895e-07
3.6598e-06
7.06042e-06
9.67679e-06
1.18988e-05
1.36297e-05
1.49228e-05
1.57417e-05
1.58519e-05
1.55486e-05
1.47655e-05
1.3117e-05
1.12497e-05
8.08031e-06
4.72205e-06
1.05557e-06
2.4097e-08
3.62903e-10
7.14935e-09
7.07671e-08
4.121e-07
1.70387e-06
4.13646e-06
6.65914e-06
8.59202e-06
1.00102e-05
1.11228e-05
1.1692e-05
1.21751e-05
1.21361e-05
1.16457e-05
1.05427e-05
8.86649e-06
6.17527e-06
3.58757e-06
7.92441e-07
2.19373e-08
1.17739e-10
3.39966e-09
2.75541e-08
1.38702e-07
5.44656e-07
1.68979e-06
3.05955e-06
4.60249e-06
5.82433e-06
6.97358e-06
7.70156e-06
8.02196e-06
8.2762e-06
7.79266e-06
6.99352e-06
5.56915e-06
3.88302e-06
2.34036e-06
5.02163e-07
1.88824e-08
7.06856e-11
2.02242e-09
1.24112e-08
4.91181e-08
1.52086e-07
4.45245e-07
9.14468e-07
1.44318e-06
2.01623e-06
2.384e-06
2.78789e-06
2.94487e-06
3.00617e-06
2.89948e-06
2.71298e-06
2.40145e-06
2.10312e-06
1.2598e-06
2.60003e-07
1.47749e-08
2.05261e-10
2.99121e-09
9.87374e-09
2.48328e-08
6.19566e-08
1.16275e-07
2.43226e-07
3.24075e-07
4.7077e-07
5.44591e-07
6.57516e-07
7.06052e-07
8.05953e-07
8.19242e-07
9.06946e-07
8.96169e-07
8.78825e-07
5.09839e-07
9.38694e-08
9.94997e-09
7.86371e-11
1.85342e-10
5.22361e-10
9.7367e-10
2.12902e-09
3.10265e-09
5.58028e-09
6.57823e-09
8.71123e-09
9.29628e-09
1.05389e-08
1.07625e-08
1.13478e-08
1.1214e-08
1.12338e-08
1.08036e-08
1.0723e-08
1.03959e-08
9.13859e-09
5.79602e-09
)
;

boundaryField
{
    movingWall
    {
        type            nutkWallFunction;
        Cmu             0.09;
        kappa           0.41;
        E               9.8;
        value           uniform 0;
    }
    fixedWalls
    {
        type            nutkWallFunction;
        Cmu             0.09;
        kappa           0.41;
        E               9.8;
        value           uniform 0;
    }
    frontAndBack
    {
        type            empty;
    }
}


// ************************************************************************* //
