/*--------------------------------*- C++ -*----------------------------------*\
| =========                 |                                                 |
| \\      /  F ield         | OpenFOAM: The Open Source CFD Toolbox           |
|  \\    /   O peration     | Version:  5.0                                   |
|   \\  /    A nd           | Web:      www.OpenFOAM.org                      |
|    \\/     M anipulation  |                                                 |
\*---------------------------------------------------------------------------*/
FoamFile
{
    version     2.0;
    format      ascii;
    class       volScalarField;
    location    "10";
    object      omega;
}
// * * * * * * * * * * * * * * * * * * * * * * * * * * * * * * * * * * * * * //

dimensions      [0 0 -1 0 0 0 0];

internalField   nonuniform List<scalar> 
400
(
128
128
128
128
128
128
128
128
128
128
128
128
128
128
128
128
128
128
128
128
128
56.7805
79.654
85.7979
79.4873
67.2045
57.2785
47.0633
41.6403
36.475
34.3344
33.4529
34.8354
36.9146
40.2572
45.2107
53.3929
66.7074
92.1082
128
128
54.3285
59.9095
56.2721
42.5513
33.8665
27.2272
23.9212
21.929
20.9922
20.6499
20.615
21.54
22.8884
25.7042
30.4136
38.8129
53.9405
84.5145
128
128
49.2763
47.1017
37.4241
26.2322
21.0537
17.0696
15.1625
13.4634
12.6644
12.2277
12.1095
12.5048
13.6265
15.593
19.3247
26.3445
40.2357
73.3679
128
128
43.5901
37.4639
26.2422
18.264
14.5696
11.5052
10.0253
8.68348
8.06697
7.77327
7.70781
8.16449
9.12871
10.835
13.9876
20.2972
32.9026
65.5608
128
128
39.1002
30.5409
19.751
13.7393
10.7972
8.32148
7.12563
6.07679
5.60243
5.38351
5.34272
5.74397
6.56523
7.9868
10.3822
15.4114
26.2076
57.8551
128
128
35.0538
25.9611
15.8755
11.0857
8.58954
6.4999
5.48203
4.6114
4.21264
4.03518
4.01016
4.41979
5.22222
6.6062
8.70978
13.1087
23.0313
53.0415
128
128
33.0365
22.5954
13.7806
9.70061
7.33613
5.44426
4.5112
3.72065
3.35179
3.19269
3.17226
3.51653
4.21251
5.51048
7.52749
11.0927
19.9197
48.371
128
128
30.4885
20.7931
12.6383
8.87018
6.58753
4.85936
3.98685
3.25742
2.92761
2.80517
2.80636
3.10585
3.73155
4.93387
6.97077
10.1486
18.484
45.6588
128
128
30.4793
19.3672
12.2117
8.7064
6.37489
4.70068
3.79638
3.10544
2.76836
2.6474
2.68569
2.93288
3.50748
4.57598
6.63115
9.35438
17.1713
42.8217
128
128
32.1503
19.1465
12.3357
8.83416
6.46639
4.7884
3.85973
3.17872
2.82273
2.65326
2.6831
2.89336
3.44238
4.45198
6.50249
9.03723
16.638
41.0812
128
128
36.4073
19.5644
12.7243
9.18662
6.76298
5.05689
4.07309
3.39641
3.01603
2.82937
2.87028
3.0583
3.5398
4.48088
6.46745
8.9335
16.4285
39.6391
128
128
44.0301
20.9304
13.5217
9.9278
7.39793
5.64421
4.55773
3.86276
3.44401
3.21348
3.25436
3.45267
3.96648
4.96304
6.78048
9.10906
16.4239
39.0456
128
128
54.8339
24.4214
14.964
10.9781
8.31794
6.43558
5.22774
4.47501
4.04298
3.82624
3.88921
4.12286
4.68281
5.63282
7.24273
9.63394
17.1143
39.5564
128
128
65.2279
29.4791
17.5599
12.6264
9.82493
7.88566
6.57295
5.70334
5.22121
4.98429
5.05668
5.29939
5.86009
6.75294
8.20104
10.657
18.2058
40.8025
128
128
76.6519
38.7324
21.7148
15.05
11.5807
9.44614
8.12995
7.27969
6.84547
6.68288
6.76104
6.97914
7.47317
8.21502
9.52355
12.1838
20.0716
43.3698
128
128
75.1641
47.0938
30.1546
20.2886
15.112
12.1739
10.4274
9.31531
8.73035
8.52075
8.60156
8.82681
9.34031
10.0862
11.6031
14.7717
23.5116
48.6116
128
128
64.9436
47.5323
36.5461
28.5956
22.77
18.5552
15.681
13.7121
12.566
11.8681
11.5551
11.6224
12.0281
13.0157
15.3034
19.7804
30.5039
59.7939
128
128
48.0598
45.9912
40.6512
35.3348
31.168
27.7178
25.4852
23.9363
23.012
23.0488
23.4813
24.4993
26.7493
29.3043
35.09
42.0658
57.3377
90.667
128
128
128
128
128
128
128
128
128
128
128
128
128
128
128
128
128
128
128
128
128
)
;

boundaryField
{
    movingWall
    {
        Cmu             0.09;
        kappa           0.41;
        E               9.8;
        beta1           0.075;
        blended         false;
        type            omegaWallFunction;
        value           nonuniform List<scalar> 
20
(
128
128
128
128
128
128
128
128
128
128
128
128
128
128
128
128
128
128
128
128
)
;
    }
    fixedWalls
    {
        Cmu             0.09;
        kappa           0.41;
        E               9.8;
        beta1           0.075;
        blended         false;
        type            omegaWallFunction;
        value           nonuniform List<scalar> 
60
(
128
128
128
128
128
128
128
128
128
128
128
128
128
128
128
128
128
128
128
128
128
128
128
128
128
128
128
128
128
128
128
128
128
128
128
128
128
128
128
128
128
128
128
128
128
128
128
128
128
128
128
128
128
128
128
128
128
128
128
128
)
;
    }
    frontAndBack
    {
        type            empty;
    }
}


// ************************************************************************* //
