/*--------------------------------*- C++ -*----------------------------------*\
| =========                 |                                                 |
| \\      /  F ield         | OpenFOAM: The Open Source CFD Toolbox           |
|  \\    /   O peration     | Version:  5.0                                   |
|   \\  /    A nd           | Web:      www.OpenFOAM.org                      |
|    \\/     M anipulation  |                                                 |
\*---------------------------------------------------------------------------*/
FoamFile
{
    version     2.0;
    format      ascii;
    class       volScalarField;
    location    "10";
    object      p;
}
// * * * * * * * * * * * * * * * * * * * * * * * * * * * * * * * * * * * * * //

dimensions      [0 2 -2 0 0 0 0];

internalField   nonuniform List<scalar> 
400
(
5.92198e-08
-0.000117509
-0.000285828
-0.00017199
-0.000960188
-0.00285869
-0.00517532
-0.00730183
-0.00901607
-0.0101818
-0.0107518
-0.0106523
-0.00983787
-0.00818579
-0.00561166
-0.00209485
0.0022218
0.00671373
0.00991615
0.01117
1.31858e-05
-7.36582e-05
-0.00027078
-0.000932168
-0.00229362
-0.00429191
-0.00638549
-0.00838429
-0.00996655
-0.0110454
-0.0115596
-0.0114884
-0.0107813
-0.00935486
-0.00712841
-0.00406709
-0.000202304
0.00409769
0.00777056
0.00984051
0.000369916
-7.12264e-05
-0.000931573
-0.00237218
-0.00434529
-0.00646176
-0.00852498
-0.0103742
-0.0117226
-0.012581
-0.0129289
-0.0127659
-0.0120698
-0.0108417
-0.00903868
-0.0066214
-0.00353748
0.000163327
0.00385611
0.00635095
0.000252341
-0.000564773
-0.00215275
-0.00433517
-0.00669185
-0.00887309
-0.010724
-0.0121373
-0.0131488
-0.0137647
-0.013973
-0.0137805
-0.0131778
-0.0121569
-0.0107126
-0.00883861
-0.00648825
-0.00357135
-0.000390372
0.00200445
-0.000682702
-0.00179491
-0.00393341
-0.00648433
-0.0088673
-0.0108467
-0.0123943
-0.0135345
-0.0143365
-0.0148096
-0.0149578
-0.0147717
-0.0142468
-0.0133841
-0.0122003
-0.0107133
-0.00893074
-0.00670789
-0.0043461
-0.00216379
-0.00242869
-0.00365283
-0.00595397
-0.00847125
-0.0106595
-0.0123664
-0.013664
-0.0146276
-0.0153019
-0.0156924
-0.0158101
-0.0156468
-0.015205
-0.0144851
-0.0135074
-0.0122958
-0.0109268
-0.00923847
-0.00753207
-0.00571479
-0.00449667
-0.00568046
-0.00784932
-0.0101592
-0.0120793
-0.013529
-0.0146466
-0.0154856
-0.0160727
-0.0164116
-0.0165136
-0.0163748
-0.0160027
-0.0154014
-0.0145916
-0.0135818
-0.0125148
-0.0111994
-0.00999825
-0.00852071
-0.00639709
-0.00746009
-0.00940188
-0.0114745
-0.0131459
-0.0143965
-0.0153878
-0.0161372
-0.0166621
-0.0169655
-0.0170599
-0.0169427
-0.0166248
-0.0161136
-0.0154329
-0.0145629
-0.0137188
-0.0126276
-0.0117994
-0.0106133
-0.00779991
-0.00875794
-0.0105046
-0.0123856
-0.0138783
-0.0149963
-0.0159011
-0.0165875
-0.0170683
-0.0173467
-0.0174352
-0.0173348
-0.0170556
-0.0166044
-0.0160171
-0.0152233
-0.0145614
-0.0135401
-0.0130422
-0.0120469
-0.00861204
-0.00947952
-0.0111025
-0.0128763
-0.0142683
-0.0153198
-0.0161804
-0.0168316
-0.0172884
-0.0175534
-0.0176391
-0.0175481
-0.0172911
-0.0168691
-0.0163444
-0.0155541
-0.0150702
-0.0139468
-0.0137843
-0.012856
-0.00878694
-0.00962069
-0.0111813
-0.0129331
-0.0143164
-0.0153722
-0.0162263
-0.0168702
-0.017322
-0.017585
-0.01767
-0.0175799
-0.0173267
-0.0169063
-0.0163997
-0.0155688
-0.0152078
-0.013874
-0.0140702
-0.0130209
-0.00833769
-0.00920309
-0.0107553
-0.0125659
-0.0140157
-0.0151354
-0.0160249
-0.0166943
-0.0171641
-0.0174388
-0.0175268
-0.0174312
-0.0171638
-0.0167256
-0.0161614
-0.0153316
-0.0148642
-0.0134194
-0.0138297
-0.0125332
-0.00737528
-0.00832559
-0.00990936
-0.0117841
-0.0133674
-0.0146019
-0.0155714
-0.0163025
-0.0168162
-0.0171174
-0.0172134
-0.0171052
-0.0168058
-0.0163145
-0.0156583
-0.0147901
-0.0140696
-0.0125939
-0.0130191
-0.0113877
-0.00620952
-0.00720928
-0.00877045
-0.0105948
-0.0123395
-0.0137378
-0.0148403
-0.015678
-0.0162689
-0.0166164
-0.0167281
-0.0166044
-0.0162569
-0.0156819
-0.0149034
-0.0139129
-0.0128781
-0.0113673
-0.0116426
-0.00962514
-0.00513471
-0.0060655
-0.00746232
-0.00910019
-0.0108925
-0.0124884
-0.0137994
-0.0148079
-0.0155217
-0.0159443
-0.0160855
-0.0159441
-0.0155304
-0.0148389
-0.0138914
-0.0126898
-0.0113327
-0.00973078
-0.00977492
-0.00730262
-0.00466728
-0.00516952
-0.00605077
-0.00733361
-0.00903148
-0.0108132
-0.0123885
-0.0136424
-0.0145476
-0.0150935
-0.0152884
-0.0151335
-0.0146413
-0.0138041
-0.0126428
-0.0111704
-0.00950786
-0.00774742
-0.00747167
-0.00445672
-0.00472454
-0.00462986
-0.00460923
-0.00535444
-0.00686009
-0.00874225
-0.0105863
-0.0121325
-0.0132921
-0.0140253
-0.0143323
-0.0142044
-0.0136413
-0.0126521
-0.0112573
-0.00948618
-0.00748928
-0.00551237
-0.0047613
-0.000953617
-0.00461253
-0.00394133
-0.00308727
-0.00330462
-0.00460418
-0.00652169
-0.00856842
-0.0103601
-0.011769
-0.0127071
-0.0131516
-0.0130821
-0.0125115
-0.0114226
-0.00984338
-0.00780562
-0.00549406
-0.0030986
-0.00125388
0.00463739
-0.00393886
-0.00297119
-0.00172711
-0.00167252
-0.00280638
-0.00471539
-0.00688677
-0.00890528
-0.0105319
-0.011668
-0.0122521
-0.0122749
-0.0117178
-0.0105904
-0.00890533
-0.00665738
-0.0038448
-0.000301023
0.00522602
0.0178293
-0.00532232
-0.00206952
-0.000637788
-0.000657008
-0.00168115
-0.00354198
-0.00578201
-0.0079927
-0.00980728
-0.0110965
-0.0117936
-0.0119029
-0.0114205
-0.0103563
-0.00867956
-0.00624352
-0.00215974
0.00534558
0.019641
0.0423333
)
;

boundaryField
{
    movingWall
    {
        type            zeroGradient;
    }
    fixedWalls
    {
        type            zeroGradient;
    }
    frontAndBack
    {
        type            empty;
    }
}


// ************************************************************************* //
