/*--------------------------------*- C++ -*----------------------------------*\
| =========                 |                                                 |
| \\      /  F ield         | OpenFOAM: The Open Source CFD Toolbox           |
|  \\    /   O peration     | Version:  5.0                                   |
|   \\  /    A nd           | Web:      www.OpenFOAM.org                      |
|    \\/     M anipulation  |                                                 |
\*---------------------------------------------------------------------------*/
FoamFile
{
    version     2.0;
    format      ascii;
    class       surfaceScalarField;
    location    "10";
    object      phi;
}
// * * * * * * * * * * * * * * * * * * * * * * * * * * * * * * * * * * * * * //

dimensions      [0 3 -1 0 0 0 0];

internalField   nonuniform List<scalar> 
760
(
3.08041e-07
-3.08047e-07
1.76275e-07
1.31766e-07
-5.6687e-07
7.43144e-07
-2.15612e-06
1.58925e-06
-4.01727e-06
1.86115e-06
-5.57155e-06
1.55428e-06
-6.88592e-06
1.31437e-06
-7.81819e-06
9.32265e-07
-8.54292e-06
7.24729e-07
-8.99039e-06
4.47472e-07
-9.27319e-06
2.82797e-07
-9.32084e-06
4.76528e-08
-9.20444e-06
-1.16398e-07
-8.87342e-06
-3.31027e-07
-8.30444e-06
-5.68981e-07
-7.37308e-06
-9.31356e-07
-5.98924e-06
-1.38384e-06
-4.01525e-06
-1.97399e-06
-1.62717e-06
-2.38808e-06
-1.62717e-06
-2.92491e-07
-1.55558e-08
-1.32121e-06
1.16048e-06
-3.09835e-06
2.52029e-06
-4.81815e-06
3.30906e-06
-6.02103e-06
3.06402e-06
-7.11879e-06
2.65205e-06
-7.90866e-06
2.10424e-06
-8.58775e-06
1.61135e-06
-9.02399e-06
1.16097e-06
-9.2966e-06
7.20081e-07
-9.36309e-06
3.49286e-07
-9.27197e-06
-4.34666e-08
-9.05114e-06
-3.37228e-07
-8.67857e-06
-7.03602e-07
-8.11948e-06
-1.12806e-06
-7.33348e-06
-1.71736e-06
-6.19211e-06
-2.52521e-06
-4.56548e-06
-3.60062e-06
-2.35849e-06
-4.59507e-06
-3.98566e-06
-1.09705e-06
1.0815e-06
-2.73203e-06
2.79545e-06
-4.27588e-06
4.06414e-06
-5.38688e-06
4.42006e-06
-6.22415e-06
3.90128e-06
-6.86441e-06
3.29232e-06
-7.23447e-06
2.4743e-06
-7.45829e-06
1.83516e-06
-7.4618e-06
1.16448e-06
-7.43292e-06
6.91206e-07
-7.32682e-06
2.43185e-07
-7.22493e-06
-1.45354e-07
-6.97956e-06
-5.82599e-07
-6.66345e-06
-1.01971e-06
-6.21324e-06
-1.57828e-06
-5.6706e-06
-2.26e-06
-4.95012e-06
-3.24569e-06
-3.91491e-06
-4.63583e-06
-2.3035e-06
-6.20648e-06
-6.28916e-06
-1.43798e-06
2.51948e-06
-3.03105e-06
4.38853e-06
-4.24923e-06
5.28232e-06
-4.99394e-06
5.16478e-06
-5.44618e-06
4.35352e-06
-5.61568e-06
3.46182e-06
-5.65555e-06
2.51417e-06
-5.6648e-06
1.84442e-06
-5.6893e-06
1.18898e-06
-5.69345e-06
6.95348e-07
-5.62587e-06
1.75606e-07
-5.49748e-06
-2.73742e-07
-5.30281e-06
-7.77266e-07
-5.01956e-06
-1.30296e-06
-4.63985e-06
-1.95799e-06
-4.15432e-06
-2.74553e-06
-3.61058e-06
-3.78943e-06
-2.9132e-06
-5.33321e-06
-1.80816e-06
-7.31152e-06
-8.09732e-06
-1.45062e-06
3.9701e-06
-2.74809e-06
5.68599e-06
-3.59771e-06
6.13194e-06
-4.06526e-06
5.63233e-06
-4.24526e-06
4.53352e-06
-4.29978e-06
3.51633e-06
-4.36526e-06
2.57965e-06
-4.41458e-06
1.89374e-06
-4.45088e-06
1.22528e-06
-4.4454e-06
6.8987e-07
-4.39753e-06
1.2774e-07
-4.28287e-06
-3.88409e-07
-4.10339e-06
-9.56742e-07
-3.84343e-06
-1.56292e-06
-3.51788e-06
-2.28355e-06
-3.11335e-06
-3.15005e-06
-2.68712e-06
-4.21566e-06
-2.23692e-06
-5.78341e-06
-1.42493e-06
-8.12352e-06
-9.52225e-06
-1.18681e-06
5.15691e-06
-2.13375e-06
6.63293e-06
-2.75845e-06
6.75664e-06
-3.069e-06
5.94288e-06
-3.19043e-06
4.65495e-06
-3.2526e-06
3.57851e-06
-3.33773e-06
2.66478e-06
-3.39811e-06
1.95412e-06
-3.43903e-06
1.2662e-06
-3.43359e-06
6.84427e-07
-3.39159e-06
8.57435e-08
-3.29271e-06
-4.87296e-07
-3.13878e-06
-1.11067e-06
-2.91631e-06
-1.78539e-06
-2.63412e-06
-2.56574e-06
-2.28043e-06
-3.50374e-06
-1.88813e-06
-4.60796e-06
-1.49193e-06
-6.17962e-06
-1.08929e-06
-8.52615e-06
-1.06115e-05
-8.59967e-07
6.01687e-06
-1.52787e-06
7.30083e-06
-1.97658e-06
7.20535e-06
-2.1813e-06
6.1476e-06
-2.29063e-06
4.76428e-06
-2.37719e-06
3.66506e-06
-2.46634e-06
2.75394e-06
-2.52471e-06
2.01249e-06
-2.56412e-06
1.3056e-06
-2.56289e-06
6.83202e-07
-2.53084e-06
5.36961e-08
-2.45556e-06
-5.62575e-07
-2.33918e-06
-1.22706e-06
-2.17065e-06
-1.95391e-06
-1.95617e-06
-2.78022e-06
-1.69115e-06
-3.76877e-06
-1.38483e-06
-4.91427e-06
-1.09829e-06
-6.46616e-06
-8.09453e-07
-8.81499e-06
-1.1421e-05
-5.10768e-07
6.52764e-06
-9.51667e-07
7.74173e-06
-1.2574e-06
7.51109e-06
-1.41326e-06
6.30346e-06
-1.51925e-06
4.87026e-06
-1.60668e-06
3.7525e-06
-1.68907e-06
2.83633e-06
-1.74198e-06
2.06539e-06
-1.77702e-06
1.34065e-06
-1.77879e-06
6.84977e-07
-1.75946e-06
3.43587e-08
-1.70731e-06
-6.1472e-07
-1.62678e-06
-1.30759e-06
-1.50735e-06
-2.07334e-06
-1.35168e-06
-2.93589e-06
-1.15885e-06
-3.96159e-06
-9.20282e-07
-5.15284e-06
-7.09424e-07
-6.67702e-06
-5.97895e-07
-8.92651e-06
-1.20189e-05
-2.32302e-07
6.75994e-06
-4.67869e-07
7.9773e-06
-6.4075e-07
7.68397e-06
-7.56004e-07
6.41872e-06
-8.40423e-07
4.95468e-06
-9.13936e-07
3.82601e-06
-9.82648e-07
2.90504e-06
-1.02748e-06
2.11023e-06
-1.05883e-06
1.37199e-06
-1.06779e-06
6.93939e-07
-1.06273e-06
2.93005e-08
-1.03818e-06
-6.39277e-07
-9.97987e-07
-1.34778e-06
-9.34908e-07
-2.13642e-06
-8.51638e-07
-3.01916e-06
-7.40943e-07
-4.07228e-06
-6.17611e-07
-5.27617e-06
-5.01392e-07
-6.79324e-06
-4.34755e-07
-8.99315e-06
-1.24536e-05
6.29256e-08
6.69702e-06
-1.6979e-08
8.0572e-06
-7.23721e-08
7.73936e-06
-1.25571e-07
6.47192e-06
-1.95726e-07
5.02483e-06
-2.64626e-07
3.89491e-06
-3.17296e-07
2.95771e-06
-3.53765e-07
2.1467e-06
-3.82067e-07
1.4003e-06
-3.98763e-07
7.10634e-07
-4.0924e-07
3.97777e-08
-4.10591e-07
-6.37925e-07
-4.05474e-07
-1.3529e-06
-3.96153e-07
-2.14574e-06
-3.66292e-07
-3.04902e-06
-3.38498e-07
-4.10008e-06
-2.77273e-07
-5.3374e-06
-2.54217e-07
-6.81629e-06
-3.25572e-07
-8.9218e-06
-1.27792e-05
3.30389e-07
6.36663e-06
4.65445e-07
7.92215e-06
5.22094e-07
7.68271e-06
4.58351e-07
6.53566e-06
4.01417e-07
5.08177e-06
3.58021e-07
3.9383e-06
3.25256e-07
2.99047e-06
2.99929e-07
2.17203e-06
2.74971e-07
1.42525e-06
2.51628e-07
7.33977e-07
2.25331e-07
6.60754e-08
1.96582e-07
-6.09176e-07
1.63934e-07
-1.32025e-06
1.11451e-07
-2.09326e-06
9.69365e-08
-3.0345e-06
-2.30997e-08
-3.98004e-06
3.16663e-08
-5.39216e-06
-1.14258e-07
-6.67037e-06
-2.18381e-07
-8.81767e-06
-1.29976e-05
5.87555e-07
5.77908e-06
9.38871e-07
7.57083e-06
1.12492e-06
7.49666e-06
1.08181e-06
6.57877e-06
1.02883e-06
5.13474e-06
9.93911e-07
3.97323e-06
9.74753e-07
3.00963e-06
9.60964e-07
2.18582e-06
9.40487e-07
1.44573e-06
9.1184e-07
7.62623e-07
8.70168e-07
1.07748e-07
8.14063e-07
-5.53071e-07
7.40207e-07
-1.24639e-06
6.60676e-07
-2.01372e-06
5.40585e-07
-2.91441e-06
4.34151e-07
-3.87361e-06
2.97365e-07
-5.25538e-06
4.98894e-08
-6.42289e-06
-1.27807e-07
-8.63998e-06
-1.31254e-05
8.85497e-07
4.89358e-06
1.37329e-06
7.08303e-06
1.68954e-06
7.18041e-06
1.7412e-06
6.52712e-06
1.68942e-06
5.18652e-06
1.6684e-06
3.99425e-06
1.6649e-06
3.01314e-06
1.66207e-06
2.18864e-06
1.64581e-06
1.46199e-06
1.61212e-06
7.96314e-07
1.55372e-06
1.66149e-07
1.4708e-06
-4.70156e-07
1.35899e-06
-1.13458e-06
1.22303e-06
-1.87776e-06
1.03201e-06
-2.7234e-06
8.58397e-07
-3.69999e-06
5.76175e-07
-4.97315e-06
2.55483e-07
-6.1022e-06
1.79273e-08
-8.40242e-06
-1.31075e-05
1.13525e-06
3.75833e-06
1.85319e-06
6.36509e-06
2.27831e-06
6.75529e-06
2.45971e-06
6.34571e-06
2.43471e-06
5.21153e-06
2.42328e-06
4.00567e-06
2.42784e-06
3.00858e-06
2.4332e-06
2.18328e-06
2.42062e-06
1.47457e-06
2.38203e-06
8.34901e-07
2.3111e-06
2.37085e-07
2.20353e-06
-3.62589e-07
2.05394e-06
-9.84988e-07
1.86535e-06
-1.68917e-06
1.62395e-06
-2.482e-06
1.36454e-06
-3.44059e-06
9.65383e-07
-4.57399e-06
5.22405e-07
-5.65922e-06
1.33703e-07
-8.01372e-06
-1.29738e-05
1.38116e-06
2.37718e-06
2.18734e-06
5.55891e-06
2.7436e-06
6.19903e-06
3.13745e-06
5.95187e-06
3.27674e-06
5.07223e-06
3.30973e-06
3.97269e-06
3.31965e-06
2.99866e-06
3.32742e-06
2.17551e-06
3.31518e-06
1.48681e-06
3.27128e-06
8.788e-07
3.18716e-06
3.21204e-07
3.05716e-06
-2.32591e-07
2.87055e-06
-7.98376e-07
2.63204e-06
-1.45066e-06
2.32291e-06
-2.17287e-06
1.94919e-06
-3.06687e-06
1.40407e-06
-4.02887e-06
7.72907e-07
-5.02806e-06
2.95882e-07
-7.53669e-06
-1.26779e-05
1.39857e-06
9.7861e-07
2.37002e-06
4.58746e-06
3.09739e-06
5.47166e-06
3.73036e-06
5.31889e-06
4.10971e-06
4.69289e-06
4.29569e-06
3.78671e-06
4.38429e-06
2.91006e-06
4.42428e-06
2.13552e-06
4.42082e-06
1.49027e-06
4.37304e-06
9.26585e-07
4.27113e-06
4.23111e-07
4.12057e-06
-8.20278e-08
3.88866e-06
-5.66476e-07
3.5902e-06
-1.15219e-06
3.18603e-06
-1.7687e-06
2.65893e-06
-2.53977e-06
1.95853e-06
-3.32847e-06
1.14343e-06
-4.21296e-06
5.36603e-07
-6.92986e-06
-1.21413e-05
8.01091e-07
1.7752e-07
2.02422e-06
3.36433e-06
3.15027e-06
4.34561e-06
4.07609e-06
4.39306e-06
4.76962e-06
3.99935e-06
5.22995e-06
3.32639e-06
5.51394e-06
2.62606e-06
5.67283e-06
1.97663e-06
5.7363e-06
1.42681e-06
5.73307e-06
9.29815e-07
5.63861e-06
5.17566e-07
5.44356e-06
1.13019e-07
5.16391e-06
-2.86827e-07
4.77538e-06
-7.63662e-07
4.22907e-06
-1.22239e-06
3.50996e-06
-1.82066e-06
2.56147e-06
-2.37998e-06
1.53932e-06
-3.19082e-06
8.71298e-07
-6.26183e-06
-1.127e-05
-1.68564e-07
3.46084e-07
1.27894e-06
1.91683e-06
2.66853e-06
2.95601e-06
3.94564e-06
3.11595e-06
4.99542e-06
2.94958e-06
5.80287e-06
2.51893e-06
6.37361e-06
2.05532e-06
6.77866e-06
1.57159e-06
6.99044e-06
1.21503e-06
7.08517e-06
8.35082e-07
7.01726e-06
5.85478e-07
6.86974e-06
2.60535e-07
6.5229e-06
6.00146e-08
6.04798e-06
-2.88739e-07
5.34265e-06
-5.17065e-07
4.46063e-06
-9.38631e-07
3.24429e-06
-1.16365e-06
2.2054e-06
-2.15193e-06
1.42588e-06
-5.48231e-06
-9.84412e-06
-1.21953e-06
1.56562e-06
-1.91486e-07
8.88783e-07
1.45376e-06
1.31077e-06
3.06093e-06
1.50879e-06
4.46722e-06
1.54329e-06
5.60714e-06
1.379e-06
6.46382e-06
1.19864e-06
7.07838e-06
9.57029e-07
7.48774e-06
8.05665e-07
7.69982e-06
6.23002e-07
7.76035e-06
5.24953e-07
7.63807e-06
3.82815e-07
7.38678e-06
3.11304e-07
6.92823e-06
1.6981e-07
6.32002e-06
9.11457e-08
5.48266e-06
-1.01276e-07
4.61903e-06
-3.00015e-07
3.89921e-06
-1.43211e-06
2.63826e-06
-4.22136e-06
-7.20586e-06
1.56562e-06
2.4544e-06
3.76517e-06
5.27396e-06
6.81725e-06
8.19625e-06
9.39489e-06
1.03519e-05
1.11576e-05
1.17806e-05
1.23055e-05
1.26884e-05
1.29997e-05
1.31695e-05
1.32606e-05
1.31593e-05
1.28593e-05
1.14272e-05
7.20586e-06
)
;

boundaryField
{
    movingWall
    {
        type            calculated;
        value           uniform 0;
    }
    fixedWalls
    {
        type            calculated;
        value           uniform 0;
    }
    frontAndBack
    {
        type            empty;
        value           nonuniform 0();
    }
}


// ************************************************************************* //
