/*--------------------------------*- C++ -*----------------------------------*\
| =========                 |                                                 |
| \\      /  F ield         | OpenFOAM: The Open Source CFD Toolbox           |
|  \\    /   O peration     | Version:  5.0                                   |
|   \\  /    A nd           | Web:      www.OpenFOAM.org                      |
|    \\/     M anipulation  |                                                 |
\*---------------------------------------------------------------------------*/
FoamFile
{
    version     2.0;
    format      ascii;
    class       volVectorField;
    location    "10";
    object      U;
}
// * * * * * * * * * * * * * * * * * * * * * * * * * * * * * * * * * * * * * //

dimensions      [0 1 -1 0 0 0 0];

internalField   nonuniform List<vector> 
400
(
(0.00274825 -0.00435124 0)
(0.00902129 -0.002097 0)
(-0.00299969 0.00182148 0)
(-0.0161597 0.00990599 0)
(-0.0674834 0.021016 0)
(-0.0999026 0.0151269 0)
(-0.130159 0.0151658 0)
(-0.149607 0.011335 0)
(-0.166435 0.0100155 0)
(-0.176595 0.0070107 0)
(-0.18424 0.00573509 0)
(-0.187502 0.00333692 0)
(-0.188039 0.00117981 0)
(-0.182606 -0.00141508 0)
(-0.173105 -0.00471849 0)
(-0.155647 -0.00924337 0)
(-0.131288 -0.0145331 0)
(-0.0965095 -0.020145 0)
(-0.0576832 -0.0202689 0)
(-0.0118163 -0.00426632 0)
(-0.000837758 -0.0093103 0)
(-0.0105461 0.00781154 0)
(-0.039542 0.0308949 0)
(-0.0811557 0.0523571 0)
(-0.113337 0.0489756 0)
(-0.134668 0.0426701 0)
(-0.153292 0.0350636 0)
(-0.167131 0.0243727 0)
(-0.178034 0.0176844 0)
(-0.184373 0.00971521 0)
(-0.188238 0.00454057 0)
(-0.188087 -0.0020203 0)
(-0.185423 -0.0069943 0)
(-0.179161 -0.0141382 0)
(-0.169348 -0.0215101 0)
(-0.154167 -0.0329054 0)
(-0.133176 -0.046966 0)
(-0.10434 -0.0654935 0)
(-0.0696745 -0.0790683 0)
(-0.0203812 -0.0559568 0)
(-0.00886065 0.00918815 0)
(-0.0354843 0.0416451 0)
(-0.0712666 0.0680365 0)
(-0.10117 0.0773118 0)
(-0.119941 0.0689669 0)
(-0.132716 0.0588613 0)
(-0.144118 0.0442869 0)
(-0.148631 0.0347856 0)
(-0.149496 0.0240816 0)
(-0.149502 0.0154825 0)
(-0.147911 0.00703407 0)
(-0.145965 -0.000493869 0)
(-0.143084 -0.00831365 0)
(-0.137468 -0.0164983 0)
(-0.130335 -0.0271767 0)
(-0.119789 -0.0410876 0)
(-0.105533 -0.0616421 0)
(-0.0854194 -0.0882949 0)
(-0.0621495 -0.115507 0)
(-0.0226753 -0.112897 0)
(-0.0121802 0.0365869 0)
(-0.0461974 0.0732929 0)
(-0.0776537 0.0943814 0)
(-0.0974447 0.0947529 0)
(-0.107417 0.081671 0)
(-0.113361 0.0671402 0)
(-0.113244 0.0504917 0)
(-0.112093 0.0369255 0)
(-0.114226 0.0235804 0)
(-0.113714 0.0136677 0)
(-0.113784 0.00375927 0)
(-0.111603 -0.00452086 0)
(-0.108577 -0.01385 0)
(-0.103729 -0.0232188 0)
(-0.0972407 -0.0350192 0)
(-0.0895472 -0.0494521 0)
(-0.078601 -0.0704443 0)
(-0.0618717 -0.102373 0)
(-0.0479212 -0.139567 0)
(-0.0177334 -0.147969 0)
(-0.0124392 0.0639006 0)
(-0.0468408 0.10011 0)
(-0.0680543 0.112395 0)
(-0.0814923 0.106668 0)
(-0.0848175 0.0888959 0)
(-0.0858839 0.0707783 0)
(-0.0853619 0.0518797 0)
(-0.0877524 0.0379186 0)
(-0.0885449 0.024322 0)
(-0.0893638 0.013755 0)
(-0.0886833 0.00281674 0)
(-0.0873384 -0.0070531 0)
(-0.0839896 -0.0180695 0)
(-0.0797792 -0.0295856 0)
(-0.0735173 -0.0432506 0)
(-0.0669447 -0.0593363 0)
(-0.0598555 -0.0797026 0)
(-0.0441826 -0.111363 0)
(-0.0421932 -0.158324 0)
(-0.00789603 -0.18113 0)
(-0.0106204 0.0895777 0)
(-0.0383784 0.121894 0)
(-0.0523038 0.127863 0)
(-0.0628713 0.115567 0)
(-0.0623797 0.0928225 0)
(-0.0637561 0.0717167 0)
(-0.0648963 0.0530592 0)
(-0.0676977 0.0389205 0)
(-0.0680747 0.0251724 0)
(-0.0692376 0.01382 0)
(-0.06828 0.00214182 0)
(-0.0673292 -0.00883252 0)
(-0.0643772 -0.0208426 0)
(-0.0607976 -0.0337816 0)
(-0.055391 -0.0488721 0)
(-0.0487363 -0.0668281 0)
(-0.0445547 -0.087958 0)
(-0.0280634 -0.118862 0)
(-0.0328308 -0.165675 0)
(-0.00473149 -0.202021 0)
(-0.00817561 0.110961 0)
(-0.0278213 0.13787 0)
(-0.0380388 0.138368 0)
(-0.045251 0.120144 0)
(-0.0434433 0.0940269 0)
(-0.0462374 0.0727244 0)
(-0.0478577 0.0544218 0)
(-0.0502604 0.0398036 0)
(-0.0506428 0.0257497 0)
(-0.0516925 0.0135689 0)
(-0.0509089 0.0012072 0)
(-0.0501754 -0.0108377 0)
(-0.0479623 -0.0238164 0)
(-0.0452406 -0.0379424 0)
(-0.0414297 -0.0540965 0)
(-0.035155 -0.0734705 0)
(-0.0344923 -0.0956641 0)
(-0.0181049 -0.127162 0)
(-0.028386 -0.174382 0)
(0.00100993 -0.221741 0)
(-0.00443737 0.124974 0)
(-0.0172164 0.149946 0)
(-0.0244154 0.14701 0)
(-0.0292994 0.124753 0)
(-0.0277191 0.0971622 0)
(-0.0312558 0.0745652 0)
(-0.0326214 0.0560787 0)
(-0.0346065 0.0408443 0)
(-0.0350064 0.0264854 0)
(-0.0358457 0.0136555 0)
(-0.0353601 0.000846153 0)
(-0.0348236 -0.0118897 0)
(-0.0333198 -0.0255177 0)
(-0.0313545 -0.0404976 0)
(-0.0292712 -0.0573448 0)
(-0.0229306 -0.0775773 0)
(-0.025526 -0.100285 0)
(-0.00848901 -0.130806 0)
(-0.0225368 -0.176572 0)
(0.00263393 -0.233786 0)
(-0.00148299 0.13398 0)
(-0.00863689 0.157311 0)
(-0.0124602 0.151654 0)
(-0.015628 0.126907 0)
(-0.0143412 0.0974944 0)
(-0.0178794 0.0753891 0)
(-0.0187472 0.0572888 0)
(-0.0203193 0.0417163 0)
(-0.0207223 0.0271132 0)
(-0.0214173 0.0137389 0)
(-0.0212783 0.000535619 0)
(-0.0210569 -0.012723 0)
(-0.0203419 -0.0268362 0)
(-0.0190795 -0.0424935 0)
(-0.0190919 -0.0600636 0)
(-0.012939 -0.0810157 0)
(-0.0191152 -0.105136 0)
(-0.00247569 -0.135744 0)
(-0.0204779 -0.179761 0)
(0.00642995 -0.245949 0)
(0.00232451 0.135656 0)
(-0.00013177 0.161668 0)
(-0.000996238 0.15518 0)
(-0.00275902 0.129466 0)
(-0.00197574 0.100798 0)
(-0.00515289 0.0778423 0)
(-0.00564023 0.0589684 0)
(-0.00685148 0.0427358 0)
(-0.00724895 0.0277904 0)
(-0.0078611 0.0140324 0)
(-0.00804559 0.000625185 0)
(-0.00816844 -0.0128782 0)
(-0.00823087 -0.0271403 0)
(-0.00744916 -0.0429582 0)
(-0.00935275 -0.0609814 0)
(-0.00341716 -0.0815512 0)
(-0.012518 -0.106748 0)
(0.00431654 -0.135068 0)
(-0.0173348 -0.179542 0)
(0.00745977 -0.252501 0)
(0.00567108 0.132535 0)
(0.00695291 0.161529 0)
(0.00955855 0.1551 0)
(0.00905725 0.129903 0)
(0.00976095 0.100098 0)
(0.00718228 0.0775728 0)
(0.00703569 0.0590887 0)
(0.0062095 0.0429862 0)
(0.0058507 0.0281518 0)
(0.00529426 0.0143694 0)
(0.00481396 0.00096646 0)
(0.00434861 -0.0125976 0)
(0.00345975 -0.0269236 0)
(0.00354409 -0.04269 0)
(0.000231643 -0.0612829 0)
(0.00484795 -0.0812902 0)
(-0.00658552 -0.108694 0)
(0.00909032 -0.135451 0)
(-0.0161511 -0.178801 0)
(0.0105104 -0.258775 0)
(0.00738637 0.12349 0)
(0.0148997 0.157657 0)
(0.0201831 0.153925 0)
(0.0215371 0.131872 0)
(0.0222133 0.103259 0)
(0.0200852 0.0798014 0)
(0.0199313 0.0604478 0)
(0.0194081 0.0438876 0)
(0.0191242 0.0289082 0)
(0.0186347 0.0150544 0)
(0.0178866 0.0017264 0)
(0.0171102 -0.0116962 0)
(0.0154819 -0.0258088 0)
(0.0146597 -0.0412466 0)
(0.0106873 -0.0595994 0)
(0.0133188 -0.0789145 0)
(0.000794352 -0.106224 0)
(0.0151161 -0.130823 0)
(-0.0149945 -0.175082 0)
(0.0126243 -0.261342 0)
(0.0113052 0.112 0)
(0.0219162 0.149293 0)
(0.0302892 0.148038 0)
(0.0335057 0.13149 0)
(0.0351466 0.101261 0)
(0.0336834 0.0783787 0)
(0.0336144 0.0594373 0)
(0.0333983 0.0432414 0)
(0.03319 0.0287573 0)
(0.0327724 0.0153845 0)
(0.0317167 0.00257209 0)
(0.030653 -0.0103595 0)
(0.028173 -0.0239412 0)
(0.0266211 -0.0391081 0)
(0.0216634 -0.0567068 0)
(0.0219459 -0.0765703 0)
(0.00875012 -0.10278 0)
(0.019655 -0.126812 0)
(-0.0138679 -0.170238 0)
(0.0164095 -0.262174 0)
(0.0131365 0.0881366 0)
(0.0293364 0.138454 0)
(0.0419447 0.141342 0)
(0.046219 0.131272 0)
(0.0494613 0.105258 0)
(0.0488825 0.0802263 0)
(0.0487615 0.0604273 0)
(0.0487805 0.0440397 0)
(0.0486412 0.0297209 0)
(0.048329 0.0166268 0)
(0.0469458 0.00423124 0)
(0.045705 -0.00822289 0)
(0.0423712 -0.0211914 0)
(0.0402326 -0.0357589 0)
(0.0342137 -0.0522864 0)
(0.0325354 -0.0715781 0)
(0.0190405 -0.0951576 0)
(0.0258893 -0.11746 0)
(-0.011375 -0.163788 0)
(0.020086 -0.260149 0)
(0.0174751 0.067643 0)
(0.0344535 0.121094 0)
(0.0502514 0.130344 0)
(0.0578557 0.123132 0)
(0.0637461 0.10338 0)
(0.0656458 0.0790329 0)
(0.0663557 0.0587661 0)
(0.0667181 0.0424166 0)
(0.0665056 0.0287784 0)
(0.0663212 0.0166165 0)
(0.0644989 0.00530442 0)
(0.0631958 -0.00613189 0)
(0.0589727 -0.017934 0)
(0.0563201 -0.031437 0)
(0.0490068 -0.0465375 0)
(0.0453903 -0.065061 0)
(0.0311645 -0.0862569 0)
(0.0318682 -0.107492 0)
(-0.00874431 -0.155364 0)
(0.0259367 -0.257587 0)
(0.0153279 0.0259195 0)
(0.0390322 0.103893 0)
(0.0564742 0.11958 0)
(0.0678894 0.116485 0)
(0.0770658 0.1017 0)
(0.0832216 0.0807143 0)
(0.086371 0.0606353 0)
(0.0883294 0.0436868 0)
(0.0884071 0.0298405 0)
(0.0886871 0.0179838 0)
(0.0862434 0.00750297 0)
(0.0849259 -0.00286514 0)
(0.0796896 -0.0133469 0)
(0.076379 -0.0255701 0)
(0.0675513 -0.038943 0)
(0.0618285 -0.0556348 0)
(0.0460091 -0.0732218 0)
(0.0396405 -0.0918525 0)
(-0.00336747 -0.145447 0)
(0.0325406 -0.253189 0)
(0.00212964 0.00976938 0)
(0.0313757 0.0736564 0)
(0.0544247 0.0979138 0)
(0.0713985 0.0991824 0)
(0.0867775 0.0898102 0)
(0.0985254 0.0743318 0)
(0.106426 0.0583274 0)
(0.112046 0.0431029 0)
(0.113806 0.0300604 0)
(0.115709 0.018525 0)
(0.113333 0.00879745 0)
(0.112216 -0.000743765 0)
(0.105785 -0.00964168 0)
(0.101384 -0.0198878 0)
(0.0903836 -0.0303376 0)
(0.0813756 -0.0436904 0)
(0.0623569 -0.0569002 0)
(0.0472801 -0.0753232 0)
(0.00330045 -0.13722 0)
(0.0422403 -0.248407 0)
(-0.0205946 -0.00380055 0)
(0.0150942 0.0586176 0)
(0.0414615 0.0796362 0)
(0.065506 0.0821446 0)
(0.0872941 0.0758282 0)
(0.107035 0.0639807 0)
(0.120085 0.0514486 0)
(0.132164 0.0403196 0)
(0.136694 0.03067 0)
(0.142137 0.0215851 0)
(0.140554 0.0140656 0)
(0.140669 0.00630735 0)
(0.133464 -0.000267746 0)
(0.128389 -0.00815395 0)
(0.114498 -0.0153366 0)
(0.102623 -0.0251568 0)
(0.0790387 -0.0348743 0)
(0.0563394 -0.0550913 0)
(0.0183055 -0.127905 0)
(0.0552111 -0.235246 0)
(-0.0272209 0.0217482 0)
(-0.0180157 0.0211961 0)
(0.0126444 0.0402756 0)
(0.0453727 0.0448972 0)
(0.0734706 0.0445387 0)
(0.100608 0.039045 0)
(0.119274 0.0331498 0)
(0.135817 0.0247695 0)
(0.14522 0.0199861 0)
(0.152725 0.0133989 0)
(0.15505 0.0105779 0)
(0.155089 0.00479718 0)
(0.150591 0.00308017 0)
(0.145041 -0.0024024 0)
(0.131816 -0.00392576 0)
(0.120666 -0.0106591 0)
(0.0953863 -0.0144133 0)
(0.0798898 -0.0405974 0)
(0.0574201 -0.113011 0)
(0.0796533 -0.18364 0)
(0.0349523 0.0315608 0)
(0.0389792 0.0176552 0)
(0.0565004 0.0160872 0)
(0.0901361 0.0182442 0)
(0.118444 0.0202115 0)
(0.148899 0.019348 0)
(0.173537 0.017862 0)
(0.196813 0.0158545 0)
(0.21453 0.0138532 0)
(0.230088 0.0124919 0)
(0.241315 0.0107304 0)
(0.250788 0.00998388 0)
(0.257092 0.00837822 0)
(0.261736 0.00813039 0)
(0.264609 0.00670463 0)
(0.263723 0.00587205 0)
(0.257532 0.00513686 0)
(0.242974 -0.00238962 0)
(0.202536 -0.0146724 0)
(0.149397 -0.034332 0)
)
;

boundaryField
{
    movingWall
    {
        type            fixedValue;
        value           uniform (1 0 0);
    }
    fixedWalls
    {
        type            noSlip;
    }
    frontAndBack
    {
        type            empty;
    }
}


// ************************************************************************* //
