/*--------------------------------*- C++ -*----------------------------------*\
| =========                 |                                                 |
| \\      /  F ield         | OpenFOAM: The Open Source CFD Toolbox           |
|  \\    /   O peration     | Version:  5.0                                   |
|   \\  /    A nd           | Web:      www.OpenFOAM.org                      |
|    \\/     M anipulation  |                                                 |
\*---------------------------------------------------------------------------*/
FoamFile
{
    version     2.0;
    format      ascii;
    class       volScalarField;
    location    "8.5";
    object      p;
}
// * * * * * * * * * * * * * * * * * * * * * * * * * * * * * * * * * * * * * //

dimensions      [0 2 -2 0 0 0 0];

internalField   nonuniform List<scalar> 
400
(
2.14558e-08
-0.000115157
-0.00028336
-0.000173978
-0.000896532
-0.00267035
-0.00484661
-0.00684717
-0.00846188
-0.00956033
-0.0101011
-0.0100306
-0.0093215
-0.00782396
-0.00543832
-0.00212158
0.00201038
0.00637787
0.00949791
0.0108306
1.57681e-05
-7.28476e-05
-0.000260104
-0.000883171
-0.00216473
-0.00403962
-0.00600042
-0.00786941
-0.00935258
-0.0103708
-0.0108687
-0.0108275
-0.0102035
-0.00892021
-0.00688294
-0.00403469
-0.000369228
0.00379736
0.00736813
0.00949314
0.000359637
-6.88942e-05
-0.000890956
-0.00225741
-0.00412272
-0.00610806
-0.00802953
-0.00974491
-0.0109977
-0.0118039
-0.0121451
-0.0120139
-0.0113869
-0.010269
-0.00862669
-0.00641891
-0.00354524
5.85507e-06
0.00355831
0.00603811
0.000272583
-0.000519671
-0.0020498
-0.00413028
-0.00636635
-0.0084175
-0.0101199
-0.0113975
-0.0123119
-0.0128749
-0.0130765
-0.0129153
-0.0123724
-0.0114407
-0.0101194
-0.00841712
-0.0062854
-0.0035285
-0.00046959
0.00185005
-0.000607001
-0.00167889
-0.00374043
-0.00619283
-0.00845964
-0.0102959
-0.0116862
-0.0126825
-0.0133765
-0.0137927
-0.0139312
-0.0137769
-0.013306
-0.0125225
-0.0114358
-0.0100699
-0.0084909
-0.00643889
-0.00417225
-0.00209488
-0.00227624
-0.00345142
-0.00567042
-0.00809834
-0.0101629
-0.0117142
-0.0128383
-0.0136451
-0.0141978
-0.0145236
-0.0146274
-0.0144976
-0.0141082
-0.0134585
-0.0125729
-0.0114477
-0.0102456
-0.0087299
-0.00711988
-0.00540645
-0.00425674
-0.00538852
-0.00747463
-0.0096974
-0.0114879
-0.0127686
-0.0136986
-0.0143639
-0.0148109
-0.015075
-0.0151633
-0.015062
-0.0147506
-0.0142108
-0.0134866
-0.0125484
-0.0116162
-0.0104685
-0.00935864
-0.00798285
-0.0060708
-0.00708296
-0.00894145
-0.0109287
-0.0124621
-0.0135247
-0.0143145
-0.0148697
-0.0152304
-0.0154424
-0.015519
-0.0154411
-0.0151998
-0.0147541
-0.0141638
-0.0133564
-0.0126384
-0.0117031
-0.0109432
-0.00986076
-0.0074027
-0.00831114
-0.00997605
-0.0117697
-0.0131133
-0.0140274
-0.0147131
-0.0151784
-0.0154718
-0.0156372
-0.0156982
-0.0156373
-0.0154518
-0.0150756
-0.0145968
-0.0138593
-0.0133303
-0.0124665
-0.0120106
-0.0111118
-0.00816676
-0.00898971
-0.0105322
-0.0122115
-0.0134447
-0.0142822
-0.014904
-0.0153099
-0.0155632
-0.0156986
-0.0157524
-0.0156961
-0.0155388
-0.0151918
-0.0147889
-0.0140604
-0.0137148
-0.0127841
-0.0126253
-0.0118101
-0.008325
-0.00911739
-0.0105894
-0.0122407
-0.0134675
-0.0143078
-0.0149104
-0.0152919
-0.0155267
-0.0156455
-0.0156854
-0.0156241
-0.0154648
-0.0151282
-0.0147417
-0.0140019
-0.0137989
-0.0126938
-0.0128713
-0.0119704
-0.00789309
-0.00871528
-0.010172
-0.0118808
-0.0131852
-0.0141042
-0.0147391
-0.0151351
-0.0153744
-0.0154901
-0.0155165
-0.0154394
-0.0152563
-0.0149149
-0.0144774
-0.0137714
-0.0135035
-0.0122889
-0.0127287
-0.0115966
-0.00698217
-0.00788534
-0.00937499
-0.0111457
-0.0126132
-0.013675
-0.0143998
-0.0148506
-0.0151213
-0.0152477
-0.0152661
-0.0151645
-0.0149409
-0.0145631
-0.0140515
-0.0133445
-0.012875
-0.0116121
-0.0121512
-0.010655
-0.00589485
-0.00684951
-0.00832098
-0.0100435
-0.0117144
-0.0129759
-0.0138591
-0.0144218
-0.0147612
-0.0149181
-0.0149327
-0.0148094
-0.0145398
-0.0140986
-0.0134927
-0.0127018
-0.0119441
-0.0106383
-0.0110883
-0.00915047
-0.00492495
-0.00580131
-0.00711738
-0.00866365
-0.0103928
-0.0119026
-0.013056
-0.0138213
-0.0142878
-0.0145116
-0.0145427
-0.0143921
-0.0140597
-0.0135191
-0.0127679
-0.0117964
-0.0107098
-0.00931481
-0.00955508
-0.00710278
-0.00454345
-0.00499462
-0.00581187
-0.00701422
-0.00863552
-0.0103619
-0.0118391
-0.0129277
-0.0136257
-0.013977
-0.014047
-0.0138683
-0.0134534
-0.0127759
-0.0118244
-0.0105939
-0.00917933
-0.0076333
-0.00754917
-0.00452645
-0.00462544
-0.00450201
-0.00446262
-0.00513806
-0.00654911
-0.0083648
-0.0101407
-0.0115681
-0.0125699
-0.0131408
-0.0133324
-0.0131742
-0.0126776
-0.0118418
-0.010657
-0.00913062
-0.00738514
-0.00564761
-0.00510194
-0.00128649
-0.00448465
-0.0038254
-0.00300605
-0.003162
-0.00436381
-0.00619854
-0.0081658
-0.00985862
-0.0111424
-0.0119599
-0.0123124
-0.0122138
-0.0116958
-0.0107489
-0.00938021
-0.00760695
-0.0055769
-0.00346129
-0.00181
0.00407817
-0.00383366
-0.00289084
-0.00167971
-0.00159213
-0.00265347
-0.00447032
-0.00654329
-0.00846267
-0.00998283
-0.0110198
-0.0115261
-0.0115172
-0.0109996
-0.0100033
-0.00852742
-0.00655918
-0.00408412
-0.000878765
0.00450415
0.0171357
-0.00523891
-0.00200762
-0.000559678
-0.000622455
-0.00161096
-0.00337837
-0.00549468
-0.00759629
-0.00930935
-0.0105064
-0.0111331
-0.0112065
-0.010751
-0.00978998
-0.00832535
-0.00617075
-0.00246011
0.00469745
0.0189439
0.0418568
)
;

boundaryField
{
    movingWall
    {
        type            zeroGradient;
    }
    fixedWalls
    {
        type            zeroGradient;
    }
    frontAndBack
    {
        type            empty;
    }
}


// ************************************************************************* //
