/*--------------------------------*- C++ -*----------------------------------*\
| =========                 |                                                 |
| \\      /  F ield         | OpenFOAM: The Open Source CFD Toolbox           |
|  \\    /   O peration     | Version:  5.0                                   |
|   \\  /    A nd           | Web:      www.OpenFOAM.org                      |
|    \\/     M anipulation  |                                                 |
\*---------------------------------------------------------------------------*/
FoamFile
{
    version     2.0;
    format      ascii;
    class       surfaceScalarField;
    location    "8.5";
    object      phi;
}
// * * * * * * * * * * * * * * * * * * * * * * * * * * * * * * * * * * * * * //

dimensions      [0 3 -1 0 0 0 0];

internalField   nonuniform List<scalar> 
760
(
3.12362e-07
-3.12364e-07
1.96566e-07
1.15797e-07
-5.26242e-07
7.22808e-07
-2.07003e-06
1.54379e-06
-3.88447e-06
1.81444e-06
-5.40274e-06
1.51827e-06
-6.68241e-06
1.27967e-06
-7.59224e-06
9.09826e-07
-8.29982e-06
7.07579e-07
-8.74416e-06
4.44342e-07
-9.02929e-06
2.85129e-07
-9.08663e-06
5.73467e-08
-8.98859e-06
-9.80382e-08
-8.67627e-06
-3.12324e-07
-8.15066e-06
-5.25614e-07
-7.26381e-06
-8.86851e-07
-5.93455e-06
-1.32925e-06
-3.99196e-06
-1.94259e-06
-1.64033e-06
-2.35164e-06
-1.64033e-06
-2.81073e-07
-3.12916e-08
-1.28898e-06
1.12371e-06
-3.01988e-06
2.45371e-06
-4.70073e-06
3.22463e-06
-5.87952e-06
2.99324e-06
-6.94049e-06
2.57924e-06
-7.70394e-06
2.04312e-06
-8.35654e-06
1.56243e-06
-8.77617e-06
1.12721e-06
-9.03669e-06
7.04861e-07
-9.10084e-06
3.49276e-07
-9.01162e-06
-3.18703e-08
-8.79761e-06
-3.12046e-07
-8.44961e-06
-6.60325e-07
-7.91379e-06
-1.06144e-06
-7.18259e-06
-1.61805e-06
-6.09867e-06
-2.41318e-06
-4.52798e-06
-3.51328e-06
-2.33303e-06
-4.54658e-06
-3.97336e-06
-1.07057e-06
1.03928e-06
-2.66785e-06
2.72098e-06
-4.17325e-06
3.95912e-06
-5.26471e-06
4.31609e-06
-6.07949e-06
3.80801e-06
-6.69672e-06
3.19648e-06
-7.04518e-06
2.39158e-06
-7.24162e-06
1.75887e-06
-7.22171e-06
1.1073e-06
-7.17017e-06
6.53314e-07
-7.05051e-06
2.29624e-07
-6.94711e-06
-1.35273e-07
-6.70474e-06
-5.54414e-07
-6.40217e-06
-9.629e-07
-5.96306e-06
-1.50055e-06
-5.43892e-06
-2.14219e-06
-4.78747e-06
-3.06462e-06
-3.83088e-06
-4.46987e-06
-2.28017e-06
-6.09729e-06
-6.25353e-06
-1.41143e-06
2.45071e-06
-2.9724e-06
4.28195e-06
-4.17222e-06
5.15895e-06
-4.89989e-06
5.04375e-06
-5.32675e-06
4.23487e-06
-5.47164e-06
3.34137e-06
-5.46433e-06
2.38427e-06
-5.43202e-06
1.72655e-06
-5.42395e-06
1.09924e-06
-5.41311e-06
6.42467e-07
-5.33357e-06
1.50091e-07
-5.20963e-06
-2.59213e-07
-5.02013e-06
-7.43923e-07
-4.75846e-06
-1.22457e-06
-4.39874e-06
-1.86026e-06
-3.93215e-06
-2.60878e-06
-3.41671e-06
-3.58007e-06
-2.78965e-06
-5.09692e-06
-1.75659e-06
-7.13035e-06
-8.01012e-06
-1.42485e-06
3.87556e-06
-2.69558e-06
5.55268e-06
-3.52683e-06
5.99019e-06
-3.97694e-06
5.49387e-06
-4.12771e-06
4.38564e-06
-4.13175e-06
3.3454e-06
-4.14156e-06
2.39408e-06
-4.15488e-06
1.73987e-06
-4.15416e-06
1.09852e-06
-4.13885e-06
6.27156e-07
-4.08982e-06
1.01056e-07
-3.99319e-06
-3.55837e-07
-3.82133e-06
-9.1579e-07
-3.57458e-06
-1.47132e-06
-3.28223e-06
-2.15261e-06
-2.91477e-06
-2.97625e-06
-2.51216e-06
-3.98268e-06
-2.12469e-06
-5.48439e-06
-1.37823e-06
-7.87682e-06
-9.38835e-06
-1.16364e-06
5.03919e-06
-2.08938e-06
6.47842e-06
-2.69665e-06
6.59746e-06
-2.98503e-06
5.78225e-06
-3.06099e-06
4.46161e-06
-3.06105e-06
3.34545e-06
-3.09359e-06
2.42662e-06
-3.10967e-06
1.75596e-06
-3.11313e-06
1.10198e-06
-3.10203e-06
6.16058e-07
-3.07117e-06
7.01922e-08
-3.00378e-06
-4.23223e-07
-2.88093e-06
-1.03865e-06
-2.65672e-06
-1.69552e-06
-2.37381e-06
-2.43552e-06
-2.06427e-06
-3.28579e-06
-1.72012e-06
-4.32682e-06
-1.38454e-06
-5.81997e-06
-1.03712e-06
-8.22424e-06
-1.04255e-05
-8.38572e-07
5.87776e-06
-1.48906e-06
7.12891e-06
-1.91784e-06
7.02625e-06
-2.09654e-06
5.96094e-06
-2.15926e-06
4.52433e-06
-2.18665e-06
3.37284e-06
-2.21501e-06
2.45498e-06
-2.21284e-06
1.75379e-06
-2.20558e-06
1.09472e-06
-2.18788e-06
5.98356e-07
-2.17779e-06
6.01056e-08
-2.14123e-06
-4.59783e-07
-2.08235e-06
-1.09753e-06
-1.9434e-06
-1.83447e-06
-1.73533e-06
-2.64359e-06
-1.49751e-06
-3.52361e-06
-1.24414e-06
-4.5802e-06
-1.00979e-06
-6.05432e-06
-7.73501e-07
-8.46053e-06
-1.1199e-05
-4.94015e-07
6.37178e-06
-9.20393e-07
7.55528e-06
-1.21167e-06
7.31752e-06
-1.34185e-06
6.09112e-06
-1.40412e-06
4.5866e-06
-1.43104e-06
3.39976e-06
-1.44203e-06
2.46597e-06
-1.41826e-06
1.73001e-06
-1.39872e-06
1.07518e-06
-1.37205e-06
5.71686e-07
-1.36958e-06
5.76338e-08
-1.34988e-06
-4.79477e-07
-1.32264e-06
-1.12478e-06
-1.2554e-06
-1.90171e-06
-1.13168e-06
-2.7673e-06
-9.71287e-07
-3.68401e-06
-7.93422e-07
-4.75806e-06
-6.35064e-07
-6.21268e-06
-5.7188e-07
-8.52371e-06
-1.17709e-05
-2.19313e-07
6.59109e-06
-4.45232e-07
7.7812e-06
-6.06432e-07
7.47872e-06
-7.07911e-07
6.1926e-06
-7.61626e-07
4.64032e-06
-7.81305e-07
3.41944e-06
-7.80388e-07
2.46505e-06
-7.50517e-07
1.70014e-06
-7.32491e-07
1.05716e-06
-7.11747e-07
5.50941e-07
-7.10713e-07
5.66002e-08
-7.10148e-07
-4.80042e-07
-7.06322e-07
-1.12861e-06
-6.9552e-07
-1.91251e-06
-6.6453e-07
-2.79829e-06
-5.92717e-07
-3.75582e-06
-5.23182e-07
-4.8276e-06
-4.4558e-07
-6.29028e-06
-4.13239e-07
-8.55605e-06
-1.21841e-05
6.9997e-08
6.5211e-06
-5.59821e-09
7.8568e-06
-6.17193e-08
7.53485e-06
-1.17647e-07
6.24853e-06
-1.66199e-07
4.68887e-06
-1.979e-07
3.45114e-06
-1.94256e-07
2.46141e-06
-1.68967e-07
1.67485e-06
-1.51336e-07
1.03953e-06
-1.41213e-07
5.40818e-07
-1.44031e-07
5.94182e-08
-1.6105e-07
-4.63023e-07
-1.56357e-07
-1.1333e-06
-1.92455e-07
-1.87641e-06
-1.87801e-07
-2.80295e-06
-2.29603e-07
-3.71402e-06
-2.00156e-07
-4.85704e-06
-2.18408e-07
-6.27202e-06
-3.12571e-07
-8.46189e-06
-1.24967e-05
3.34127e-07
6.18697e-06
4.68831e-07
7.7221e-06
5.18376e-07
7.4853e-06
4.31454e-07
6.33545e-06
3.61024e-07
4.7593e-06
3.31722e-07
3.48044e-06
3.37592e-07
2.45554e-06
3.53983e-07
1.65846e-06
3.63737e-07
1.02977e-06
3.71083e-07
5.33471e-07
3.67617e-07
6.28842e-08
3.49057e-07
-4.44463e-07
3.13085e-07
-1.09733e-06
2.49212e-07
-1.81254e-06
1.78726e-07
-2.73246e-06
2.7139e-08
-3.56243e-06
3.91036e-08
-4.86901e-06
-1.08214e-07
-6.12471e-06
-2.2023e-07
-8.34987e-06
-1.27169e-05
5.83976e-07
5.60299e-06
9.25819e-07
7.38025e-06
1.09802e-06
7.31309e-06
1.02721e-06
6.40627e-06
9.2478e-07
4.86173e-06
8.66009e-07
3.53922e-06
8.48347e-07
2.4732e-06
8.50711e-07
1.6561e-06
8.51487e-07
1.029e-06
8.52393e-07
5.32565e-07
8.46526e-07
6.87518e-08
8.29554e-07
-4.27491e-07
7.67245e-07
-1.03502e-06
6.888e-07
-1.73409e-06
5.36695e-07
-2.58036e-06
4.06217e-07
-3.43195e-06
2.67396e-07
-4.73019e-06
3.35291e-08
-5.89084e-06
-1.4991e-07
-8.16643e-06
-1.28668e-05
8.7542e-07
4.72757e-06
1.34523e-06
6.91044e-06
1.646e-06
7.01232e-06
1.66558e-06
6.38669e-06
1.53517e-06
4.99213e-06
1.45153e-06
3.62286e-06
1.40704e-06
2.51769e-06
1.38368e-06
1.67947e-06
1.36782e-06
1.04485e-06
1.35689e-06
5.43497e-07
1.33242e-06
9.32281e-08
1.29671e-06
-3.91787e-07
1.20815e-06
-9.46453e-07
1.08828e-06
-1.61422e-06
8.90014e-07
-2.38209e-06
7.11696e-07
-3.25364e-06
4.676e-07
-4.48609e-06
1.74271e-07
-5.59751e-06
-2.52378e-08
-7.96693e-06
-1.2892e-05
1.11509e-06
3.61248e-06
1.81104e-06
6.21449e-06
2.21414e-06
6.60922e-06
2.37388e-06
6.22696e-06
2.26692e-06
5.09909e-06
2.14297e-06
3.74681e-06
2.04333e-06
2.61732e-06
1.97827e-06
1.74453e-06
1.93372e-06
1.0894e-06
1.90072e-06
5.76503e-07
1.86202e-06
1.31921e-07
1.80312e-06
-3.3288e-07
1.69492e-06
-8.38254e-07
1.54415e-06
-1.46345e-06
1.33418e-06
-2.17213e-06
1.13165e-06
-3.0511e-06
7.99907e-07
-4.15435e-06
4.17788e-07
-5.21539e-06
9.32513e-08
-7.64239e-06
-1.27988e-05
1.35927e-06
2.25321e-06
2.13455e-06
5.43921e-06
2.66896e-06
6.07481e-06
3.05855e-06
5.83737e-06
3.14258e-06
5.01506e-06
3.05086e-06
3.83853e-06
2.91461e-06
2.75357e-06
2.78683e-06
1.87231e-06
2.67893e-06
1.1973e-06
2.60219e-06
6.53243e-07
2.531e-06
2.03113e-07
2.44665e-06
-2.48538e-07
2.3167e-06
-7.08298e-07
2.14567e-06
-1.29242e-06
1.90999e-06
-1.93645e-06
1.63825e-06
-2.77935e-06
1.17724e-06
-3.69334e-06
6.29882e-07
-4.66803e-06
2.41882e-07
-7.25439e-06
-1.25569e-05
1.34525e-06
9.07962e-07
2.30436e-06
4.48011e-06
3.00759e-06
5.37158e-06
3.64337e-06
5.20159e-06
4.01468e-06
4.64376e-06
4.12788e-06
3.72533e-06
4.09358e-06
2.78787e-06
4.01083e-06
1.95505e-06
3.89199e-06
1.31615e-06
3.76612e-06
7.79115e-07
3.63328e-06
3.35953e-07
3.49456e-06
-1.09822e-07
3.3111e-06
-5.2484e-07
3.08104e-06
-1.06236e-06
2.76867e-06
-1.62408e-06
2.34976e-06
-2.36044e-06
1.74165e-06
-3.08524e-06
1.02292e-06
-3.9493e-06
4.93571e-07
-6.72504e-06
-1.20633e-05
7.3831e-07
1.69653e-07
1.95067e-06
3.26775e-06
3.03457e-06
4.28768e-06
3.95867e-06
4.27749e-06
4.67243e-06
3.93e-06
5.11752e-06
3.28024e-06
5.34393e-06
2.56146e-06
5.41979e-06
1.87919e-06
5.41318e-06
1.32275e-06
5.3571e-06
8.35194e-07
5.23181e-06
4.6125e-07
5.02782e-06
9.41584e-08
4.76669e-06
-2.63706e-07
4.41337e-06
-7.09042e-07
3.91606e-06
-1.12677e-06
3.25146e-06
-1.69583e-06
2.36919e-06
-2.20297e-06
1.42178e-06
-3.00188e-06
8.27357e-07
-6.13062e-06
-1.1236e-05
-1.88559e-07
3.58212e-07
1.21457e-06
1.86462e-06
2.53991e-06
2.96233e-06
3.79609e-06
3.02131e-06
4.84758e-06
2.87851e-06
5.65325e-06
2.47457e-06
6.19798e-06
2.01672e-06
6.55861e-06
1.51857e-06
6.72599e-06
1.15538e-06
6.77879e-06
7.82393e-07
6.69043e-06
5.49608e-07
6.53322e-06
2.51366e-07
6.19422e-06
7.52913e-08
5.73323e-06
-2.48051e-07
5.06226e-06
-4.55795e-07
4.2198e-06
-8.53367e-07
3.07212e-06
-1.05529e-06
2.10933e-06
-2.0391e-06
1.40117e-06
-5.42246e-06
-9.83481e-06
-1.22499e-06
1.5832e-06
-2.2815e-07
8.6778e-07
1.39659e-06
1.33759e-06
2.9568e-06
1.46111e-06
4.32824e-06
1.50707e-06
5.45558e-06
1.34723e-06
6.28884e-06
1.18346e-06
6.87307e-06
9.3434e-07
7.24135e-06
7.87103e-07
7.41864e-06
6.051e-07
7.44527e-06
5.22976e-07
7.31006e-06
3.86571e-07
7.05863e-06
3.26722e-07
6.61767e-06
1.92912e-07
6.04127e-06
1.20607e-07
5.25531e-06
-6.74082e-08
4.46324e-06
-2.63227e-07
3.81574e-06
-1.3916e-06
2.6168e-06
-4.22352e-06
-7.21801e-06
1.5832e-06
2.45098e-06
3.78857e-06
5.24968e-06
6.75674e-06
8.10398e-06
9.28743e-06
1.02218e-05
1.10089e-05
1.1614e-05
1.2137e-05
1.25235e-05
1.28502e-05
1.30432e-05
1.31638e-05
1.30964e-05
1.28331e-05
1.14415e-05
7.21801e-06
)
;

boundaryField
{
    movingWall
    {
        type            calculated;
        value           uniform 0;
    }
    fixedWalls
    {
        type            calculated;
        value           uniform 0;
    }
    frontAndBack
    {
        type            empty;
        value           nonuniform 0();
    }
}


// ************************************************************************* //
