/*--------------------------------*- C++ -*----------------------------------*\
| =========                 |                                                 |
| \\      /  F ield         | OpenFOAM: The Open Source CFD Toolbox           |
|  \\    /   O peration     | Version:  5.0                                   |
|   \\  /    A nd           | Web:      www.OpenFOAM.org                      |
|    \\/     M anipulation  |                                                 |
\*---------------------------------------------------------------------------*/
FoamFile
{
    version     2.0;
    format      ascii;
    class       volVectorField;
    location    "8.5";
    object      U;
}
// * * * * * * * * * * * * * * * * * * * * * * * * * * * * * * * * * * * * * //

dimensions      [0 1 -1 0 0 0 0];

internalField   nonuniform List<vector> 
400
(
(0.00273407 -0.00454054 0)
(0.00923024 -0.0023502 0)
(-0.00244928 0.00177934 0)
(-0.0153218 0.00995332 0)
(-0.0648652 0.0205417 0)
(-0.0968902 0.0149888 0)
(-0.126122 0.0148081 0)
(-0.145297 0.0112096 0)
(-0.161557 0.00984598 0)
(-0.171643 0.00706519 0)
(-0.179149 0.00573843 0)
(-0.182418 0.00346128 0)
(-0.183233 0.00163755 0)
(-0.178627 -0.00133088 0)
(-0.169665 -0.00403959 0)
(-0.153261 -0.0089446 0)
(-0.12965 -0.0140458 0)
(-0.0959925 -0.0200985 0)
(-0.058012 -0.0193459 0)
(-0.0111278 -0.00504261 0)
(-0.000672287 -0.00926386 0)
(-0.0103905 0.00738536 0)
(-0.0385093 0.0300525 0)
(-0.0791712 0.0508313 0)
(-0.110657 0.0477708 0)
(-0.131375 0.0415016 0)
(-0.149308 0.034068 0)
(-0.162673 0.0236472 0)
(-0.173118 0.0172247 0)
(-0.17926 0.00954006 0)
(-0.182958 0.00457995 0)
(-0.182859 -0.00181077 0)
(-0.180311 -0.00658609 0)
(-0.174497 -0.0134018 0)
(-0.165302 -0.0203608 0)
(-0.150948 -0.031415 0)
(-0.130818 -0.0452924 0)
(-0.102899 -0.0643951 0)
(-0.0703122 -0.0788733 0)
(-0.0178083 -0.05585 0)
(-0.00851155 0.00869288 0)
(-0.0349571 0.0404328 0)
(-0.0693876 0.0661452 0)
(-0.0988614 0.07541 0)
(-0.117226 0.0674968 0)
(-0.12949 0.0573576 0)
(-0.140429 0.0430527 0)
(-0.144512 0.0337442 0)
(-0.144787 0.0233314 0)
(-0.144545 0.0151344 0)
(-0.142617 0.00702743 0)
(-0.140598 -0.000115053 0)
(-0.137649 -0.00761285 0)
(-0.132079 -0.0152949 0)
(-0.125346 -0.0253543 0)
(-0.115578 -0.0383132 0)
(-0.101961 -0.058501 0)
(-0.0822328 -0.0856025 0)
(-0.0625416 -0.113803 0)
(-0.0210716 -0.112797 0)
(-0.0118755 0.0354181 0)
(-0.0454526 0.0715922 0)
(-0.0761651 0.092383 0)
(-0.0956287 0.0927959 0)
(-0.105395 0.0796327 0)
(-0.110781 0.0648656 0)
(-0.10967 0.0484 0)
(-0.107276 0.0347857 0)
(-0.109162 0.0219766 0)
(-0.108027 0.0124953 0)
(-0.108455 0.00322136 0)
(-0.10596 -0.0045053 0)
(-0.103263 -0.0133905 0)
(-0.0982372 -0.0221104 0)
(-0.0918199 -0.0334638 0)
(-0.0853041 -0.0465074 0)
(-0.0752388 -0.0661329 0)
(-0.0573215 -0.0981289 0)
(-0.0477223 -0.136257 0)
(-0.0160254 -0.146317 0)
(-0.0121221 0.0622943 0)
(-0.0460192 0.0977045 0)
(-0.0666835 0.109726 0)
(-0.0799958 0.103819 0)
(-0.0829443 0.0858605 0)
(-0.0828299 0.0678109 0)
(-0.0808535 0.048691 0)
(-0.0825566 0.0352407 0)
(-0.0825486 0.0221442 0)
(-0.0834009 0.012624 0)
(-0.0826865 0.00230693 0)
(-0.0819586 -0.00654453 0)
(-0.0783016 -0.0173469 0)
(-0.0749121 -0.0278799 0)
(-0.0674398 -0.0413005 0)
(-0.0621317 -0.0563884 0)
(-0.0578451 -0.0751911 0)
(-0.0394062 -0.105707 0)
(-0.0421087 -0.153875 0)
(-0.00643572 -0.178888 0)
(-0.0103243 0.0874958 0)
(-0.0375923 0.119041 0)
(-0.051202 0.124843 0)
(-0.0616428 0.112636 0)
(-0.0603603 0.0898469 0)
(-0.0602222 0.0680015 0)
(-0.0600157 0.0491207 0)
(-0.0621167 0.0357454 0)
(-0.061241 0.0225312 0)
(-0.0629722 0.0127505 0)
(-0.0615537 0.00179525 0)
(-0.0621915 -0.00775138 0)
(-0.0585787 -0.0196595 0)
(-0.0565033 -0.0316557 0)
(-0.0502308 -0.0457527 0)
(-0.0422773 -0.0625084 0)
(-0.0430495 -0.0824073 0)
(-0.0232422 -0.111786 0)
(-0.0324132 -0.160338 0)
(-0.00338496 -0.198512 0)
(-0.00783841 0.108455 0)
(-0.0271592 0.134639 0)
(-0.0370268 0.13505 0)
(-0.0440742 0.1167 0)
(-0.0413635 0.0894886 0)
(-0.0426882 0.067438 0)
(-0.0430995 0.0491434 0)
(-0.0443453 0.0353345 0)
(-0.0431605 0.022067 0)
(-0.0447278 0.0120584 0)
(-0.043284 0.000875657 0)
(-0.044486 -0.00947261 0)
(-0.0419791 -0.0222612 0)
(-0.0405611 -0.0364068 0)
(-0.038069 -0.0516463 0)
(-0.0288349 -0.0689582 0)
(-0.033368 -0.0893542 0)
(-0.0140664 -0.11942 0)
(-0.0284307 -0.167688 0)
(0.00217584 -0.217708 0)
(-0.00418196 0.122094 0)
(-0.0166997 0.146443 0)
(-0.0235583 0.143345 0)
(-0.0284884 0.120874 0)
(-0.0258264 0.0924939 0)
(-0.0281663 0.068824 0)
(-0.0281583 0.0499816 0)
(-0.0286319 0.0354595 0)
(-0.0271829 0.0222044 0)
(-0.0283314 0.0122061 0)
(-0.0270912 0.00159615 0)
(-0.0280871 -0.00881311 0)
(-0.0268345 -0.0215776 0)
(-0.0251452 -0.037045 0)
(-0.0262486 -0.0539194 0)
(-0.0165547 -0.0721131 0)
(-0.0245744 -0.0928583 0)
(-0.00478106 -0.12163 0)
(-0.0228483 -0.169011 0)
(0.0036857 -0.228785 0)
(-0.00123303 0.130796 0)
(-0.00829309 0.153543 0)
(-0.011798 0.147857 0)
(-0.0150154 0.122978 0)
(-0.0130394 0.091634 0)
(-0.0157777 0.0677846 0)
(-0.015078 0.0492594 0)
(-0.0153712 0.0344136 0)
(-0.0139839 0.0214361 0)
(-0.0148624 0.0112346 0)
(-0.014033 0.000953901 0)
(-0.0145677 -0.00980789 0)
(-0.0147262 -0.0227704 0)
(-0.0125684 -0.0385583 0)
(-0.0166196 -0.0565354 0)
(-0.00757174 -0.07499 0)
(-0.0185817 -0.0971137 0)
(0.000365932 -0.125999 0)
(-0.020718 -0.171255 0)
(0.00728821 -0.24049 0)
(0.00246221 0.132217 0)
(9.69673e-06 0.157819 0)
(-0.000522694 0.151304 0)
(-0.00278013 0.125229 0)
(-0.00162226 0.0948528 0)
(-0.00428205 0.0699388 0)
(-0.00349376 0.0501894 0)
(-0.00382477 0.0343486 0)
(-0.00263837 0.0213832 0)
(-0.00312782 0.0111685 0)
(-0.00277733 0.00134891 0)
(-0.00288243 -0.00937398 0)
(-0.00407098 -0.0225835 0)
(-0.0015727 -0.0376333 0)
(-0.0071018 -0.0560643 0)
(0.00117447 -0.0739757 0)
(-0.0124167 -0.0970271 0)
(0.00669569 -0.124063 0)
(-0.0178508 -0.170221 0)
(0.00823662 -0.246584 0)
(0.00577034 0.129027 0)
(0.00695609 0.157586 0)
(0.00975339 0.151272 0)
(0.00859923 0.125959 0)
(0.00904647 0.0935397 0)
(0.00639817 0.0683102 0)
(0.00727215 0.0485226 0)
(0.00691102 0.0328376 0)
(0.00764503 0.0203458 0)
(0.00732861 0.010506 0)
(0.0071303 0.00115996 0)
(0.0074748 -0.00906917 0)
(0.00578342 -0.0225928 0)
(0.00757018 -0.0373641 0)
(0.00120351 -0.0558318 0)
(0.00771839 -0.0734634 0)
(-0.00754992 -0.098533 0)
(0.0104299 -0.124546 0)
(-0.0169931 -0.168959 0)
(0.0110711 -0.253063 0)
(0.0074516 0.11991 0)
(0.0146522 0.153792 0)
(0.0200701 0.150074 0)
(0.0204535 0.127877 0)
(0.0205011 0.0971266 0)
(0.0177544 0.0706526 0)
(0.0178225 0.0496696 0)
(0.0171828 0.0335496 0)
(0.0173278 0.020953 0)
(0.0171514 0.0109392 0)
(0.0164279 0.00149802 0)
(0.0171893 -0.00846157 0)
(0.0151382 -0.021052 0)
(0.0163556 -0.035202 0)
(0.0098002 -0.0524495 0)
(0.0143421 -0.069618 0)
(-0.00138941 -0.0950045 0)
(0.0157826 -0.119094 0)
(-0.0160399 -0.165514 0)
(0.0128551 -0.255917 0)
(0.0113522 0.108496 0)
(0.0214774 0.145517 0)
(0.0297886 0.144466 0)
(0.0322864 0.128508 0)
(0.0326841 0.0956803 0)
(0.0300331 0.0694648 0)
(0.0294173 0.0482762 0)
(0.0282963 0.0321349 0)
(0.0275788 0.0199265 0)
(0.0275597 0.0102715 0)
(0.0260734 0.00122403 0)
(0.0269204 -0.00843101 0)
(0.0241388 -0.0198756 0)
(0.0246475 -0.0334823 0)
(0.0180384 -0.0497618 0)
(0.0202002 -0.0675156 0)
(0.00455424 -0.0927886 0)
(0.0190064 -0.11663 0)
(-0.0156692 -0.161394 0)
(0.0164084 -0.257762 0)
(0.01307 0.0849387 0)
(0.0286235 0.13502 0)
(0.0411849 0.137864 0)
(0.0447249 0.128358 0)
(0.0468984 0.101927 0)
(0.0446745 0.0732195 0)
(0.0426476 0.0510573 0)
(0.0408402 0.0343729 0)
(0.0389697 0.0217476 0)
(0.0389025 0.0117513 0)
(0.036606 0.00272935 0)
(0.0373993 -0.00687875 0)
(0.0339663 -0.0174966 0)
(0.0342055 -0.0305073 0)
(0.0274898 -0.0453947 0)
(0.0281117 -0.0628015 0)
(0.0137206 -0.085639 0)
(0.0241994 -0.107528 0)
(-0.0132843 -0.155936 0)
(0.0198353 -0.25644 0)
(0.0176029 0.0646077 0)
(0.0335938 0.118143 0)
(0.0491255 0.127521 0)
(0.05661 0.120794 0)
(0.0613978 0.101936 0)
(0.0619135 0.0746281 0)
(0.0604231 0.0511865 0)
(0.058209 0.0336194 0)
(0.0544214 0.0207408 0)
(0.053583 0.0107111 0)
(0.0501779 0.00223608 0)
(0.050569 -0.00674773 0)
(0.0465066 -0.0162163 0)
(0.0464599 -0.0280866 0)
(0.0395939 -0.041521 0)
(0.0386224 -0.0588344 0)
(0.0246431 -0.0794432 0)
(0.0289682 -0.100417 0)
(-0.0109991 -0.149573 0)
(0.0256034 -0.254929 0)
(0.0146948 0.0236101 0)
(0.0379043 0.101311 0)
(0.0549705 0.11708 0)
(0.0663662 0.114027 0)
(0.0751754 0.101148 0)
(0.0806012 0.0795716 0)
(0.0819199 0.0575245 0)
(0.0826655 0.039048 0)
(0.0791202 0.0251692 0)
(0.0779428 0.0140603 0)
(0.0729367 0.00526265 0)
(0.0721437 -0.00368801 0)
(0.0667985 -0.0124718 0)
(0.0657304 -0.0235805 0)
(0.0579195 -0.0354484 0)
(0.0547909 -0.0512378 0)
(0.0400723 -0.06738 0)
(0.036644 -0.0852172 0)
(-0.00491475 -0.140221 0)
(0.0321932 -0.251161 0)
(0.00116685 0.00939117 0)
(0.0299576 0.0720693 0)
(0.0525687 0.0962567 0)
(0.0695261 0.0967205 0)
(0.0843816 0.0885201 0)
(0.0967207 0.0735219 0)
(0.103186 0.0569724 0)
(0.108793 0.0409772 0)
(0.108381 0.0276568 0)
(0.109404 0.0163417 0)
(0.10516 0.00746051 0)
(0.103924 -0.00116033 0)
(0.0970582 -0.0090675 0)
(0.0937306 -0.0185185 0)
(0.0833378 -0.0280392 0)
(0.0757986 -0.0407051 0)
(0.0574217 -0.0528297 0)
(0.0442912 -0.071279 0)
(0.00174721 -0.134538 0)
(0.0419424 -0.247573 0)
(-0.0200833 -0.00354195 0)
(0.0138694 0.0572091 0)
(0.0397047 0.0789497 0)
(0.0632282 0.0800464 0)
(0.0839514 0.0745273 0)
(0.104361 0.0631953 0)
(0.116595 0.0505713 0)
(0.128626 0.0388317 0)
(0.132139 0.0291301 0)
(0.136948 0.0200379 0)
(0.134401 0.0131305 0)
(0.134013 0.00590045 0)
(0.126506 8.26464e-05 0)
(0.121688 -0.00731042 0)
(0.108311 -0.0137973 0)
(0.0971804 -0.0231905 0)
(0.0746434 -0.0318613 0)
(0.0533038 -0.0515499 0)
(0.0176244 -0.125246 0)
(0.0549182 -0.23488 0)
(-0.0267583 0.0219995 0)
(-0.0187325 0.0202728 0)
(0.0120298 0.0407661 0)
(0.0441271 0.0431292 0)
(0.0706958 0.0427948 0)
(0.0979263 0.0378828 0)
(0.115932 0.0323017 0)
(0.132197 0.0240622 0)
(0.140914 0.0190623 0)
(0.147801 0.0127957 0)
(0.149399 0.0100385 0)
(0.148752 0.00483979 0)
(0.143892 0.00339258 0)
(0.138462 -0.0017197 0)
(0.125735 -0.00311757 0)
(0.115237 -0.00944586 0)
(0.0911098 -0.0132263 0)
(0.0773982 -0.0396248 0)
(0.0568796 -0.113444 0)
(0.0793581 -0.184561 0)
(0.0351278 0.0319436 0)
(0.0394862 0.0177057 0)
(0.0563069 0.0169429 0)
(0.0904993 0.0179186 0)
(0.117508 0.0201509 0)
(0.147651 0.0189007 0)
(0.171519 0.017905 0)
(0.194432 0.0154998 0)
(0.211971 0.0139067 0)
(0.227103 0.0122359 0)
(0.238462 0.0108699 0)
(0.247316 0.00999629 0)
(0.254165 0.00865275 0)
(0.258343 0.00838316 0)
(0.262454 0.00700838 0)
(0.262107 0.00617947 0)
(0.256872 0.00524396 0)
(0.243003 -0.00200956 0)
(0.203594 -0.0142097 0)
(0.149283 -0.0332693 0)
)
;

boundaryField
{
    movingWall
    {
        type            fixedValue;
        value           uniform (1 0 0);
    }
    fixedWalls
    {
        type            noSlip;
    }
    frontAndBack
    {
        type            empty;
    }
}


// ************************************************************************* //
