/*--------------------------------*- C++ -*----------------------------------*\
| =========                 |                                                 |
| \\      /  F ield         | OpenFOAM: The Open Source CFD Toolbox           |
|  \\    /   O peration     | Version:  5.0                                   |
|   \\  /    A nd           | Web:      www.OpenFOAM.org                      |
|    \\/     M anipulation  |                                                 |
\*---------------------------------------------------------------------------*/
FoamFile
{
    version     2.0;
    format      ascii;
    class       volScalarField;
    location    "8.5";
    object      yPlus;
}
// * * * * * * * * * * * * * * * * * * * * * * * * * * * * * * * * * * * * * //

dimensions      [0 0 0 0 0 0 0];

internalField   uniform 0;

boundaryField
{
    movingWall
    {
        type            calculated;
        value           nonuniform List<scalar> 
20
(
15.5354
15.4974
15.361
15.0804
14.8553
14.5993
14.3934
14.1926
14.037
13.9014
13.7987
13.7181
13.6554
13.6171
13.5792
13.5823
13.6304
13.7568
14.1115
14.5891
)
;
    }
    fixedWalls
    {
        type            calculated;
        value           nonuniform List<scalar> 
60
(
1.1511
1.52383
1.74399
3.05598
3.98318
4.69316
5.21387
5.52643
5.71843
5.74978
5.68234
5.48045
5.22227
4.63515
4.09154
2.63674
1.53813
2.25794
2.94282
3.44529
1.74764
3.8282
5.35603
6.06614
6.68961
7.04523
7.37765
7.56331
7.75565
7.85369
7.95778
8.00374
8.0356
8.01882
8.0033
7.95638
7.92308
7.76555
7.08694
6.18355
1.1511
1.54311
0.869968
2.13722
4.12432
4.95083
5.63446
6.03591
6.36115
6.5534
6.69404
6.75372
6.76831
6.68266
6.5137
6.1952
5.70983
4.95162
3.91001
1.74764
)
;
    }
    frontAndBack
    {
        type            empty;
    }
}


// ************************************************************************* //
