/*--------------------------------*- C++ -*----------------------------------*\
  =========                 |
  \\      /  F ield         | OpenFOAM: The Open Source CFD Toolbox
   \\    /   O peration     | Website:  https://openfoam.org
    \\  /    A nd           | Version:  6
     \\/     M anipulation  |
\*---------------------------------------------------------------------------*/
FoamFile
{
    version     2.0;
    format      ascii;
    class       volScalarField;
    location    "0.2";
    object      p;
}
// * * * * * * * * * * * * * * * * * * * * * * * * * * * * * * * * * * * * * //

dimensions      [0 2 -2 0 0 0 0];

internalField   nonuniform List<scalar> 
400
(
5.67434e-07
-0.0050358
-0.0114167
-0.0162551
-0.01788
-0.015586
-0.00931155
0.00054407
0.0132434
0.027819
0.0431437
0.0579823
0.0711102
0.0814023
0.0879678
0.090309
0.0884951
0.0833561
0.0767523
0.0716605
0.00496279
-0.000218728
-0.00589902
-0.00979833
-0.0108815
-0.00867509
-0.003138
0.00540693
0.0163529
0.0288969
0.0420837
0.0548691
0.066215
0.0751692
0.0809825
0.083239
0.0819834
0.0778028
0.0719137
0.0666821
0.0116605
0.00516371
-0.0009494
-0.00459848
-0.00547302
-0.00342572
0.00150073
0.00900963
0.0185866
0.0295536
0.0410976
0.052331
0.0623538
0.0703303
0.075586
0.0777151
0.076666
0.0726984
0.0663251
0.059739
0.017562
0.00903978
0.00154838
-0.00259099
-0.00363616
-0.00175275
0.00289416
0.00997582
0.0190028
0.0293526
0.0402879
0.0509923
0.0606175
0.0683489
0.0734886
0.0755543
0.0743435
0.0698047
0.0619255
0.0532082
0.0209855
0.0102308
0.00103099
-0.00387054
-0.0051766
-0.00332866
0.00137893
0.00855826
0.0177069
0.0282176
0.03938
0.0503956
0.0604098
0.068565
0.0740749
0.0763228
0.0749235
0.0695375
0.0597555
0.0486154
0.0207175
0.00769248
-0.00326916
-0.00893032
-0.0103776
-0.00830562
-0.0031385
0.00466387
0.0145663
0.0259532
0.0381123
0.0502303
0.0614081
0.0707004
0.077182
0.0800526
0.0787075
0.0725138
0.0607142
0.047004
0.0156674
0.000368926
-0.0122936
-0.0185489
-0.0198597
-0.0171771
-0.0110621
-0.00205595
0.00926341
0.0222611
0.0362101
0.0502646
0.0634568
0.0747214
0.0829483
0.0870988
0.0862918
0.0795509
0.0657465
0.0493304
0.00468163
-0.012885
-0.0271033
-0.0336392
-0.0343771
-0.0305592
-0.0229033
-0.0120409
0.00140531
0.0167845
0.0333583
0.0502483
0.0664084
0.0806378
0.0915979
0.0979457
0.0984376
0.0916486
0.075972
0.0567089
-0.0135962
-0.0334057
-0.0489274
-0.055247
-0.0547788
-0.049131
-0.0392132
-0.0257573
-0.00942287
0.00914381
0.0292167
0.0499027
0.0700964
0.0884675
0.103407
0.113194
0.116101
0.110081
0.0928461
0.0706249
-0.0408739
-0.0628392
-0.0792312
-0.084564
-0.0819777
-0.0735733
-0.0605056
-0.0436162
-0.0235799
-0.000996419
0.0234639
0.0489265
0.0743502
0.09824
0.118704
0.133576
0.140493
0.136521
0.118351
0.0931749
-0.0794164
-0.103295
-0.11979
-0.122917
-0.116874
-0.104451
-0.0871191
-0.0658277
-0.0412201
-0.0137794
0.0159259
0.0472267
0.0791189
0.110027
0.137868
0.159969
0.173131
0.173179
0.155237
0.127388
-0.132392
-0.157583
-0.172775
-0.171715
-0.160212
-0.142024
-0.119004
-0.09218
-0.0620722
-0.0290082
0.00672709
0.0447728
0.0842989
0.123888
0.161301
0.193375
0.215885
0.222975
0.207364
0.177716
-0.204527
-0.229605
-0.240849
-0.232326
-0.212328
-0.185945
-0.155426
-0.121773
-0.085332
-0.0460693
-0.00370766
0.0418008
0.0900479
0.139956
0.189391
0.234861
0.270951
0.289727
0.28021
0.250859
-0.30344
-0.324972
-0.327228
-0.305843
-0.272732
-0.234837
-0.194629
-0.152846
-0.109327
-0.0633898
-0.0141633
0.0390938
0.0967293
0.158346
0.222325
0.285269
0.340613
0.378203
0.381638
0.357344
-0.442245
-0.452086
-0.435584
-0.392398
-0.339565
-0.285877
-0.233517
-0.182294
-0.131219
-0.0787146
-0.0229884
0.0376937
0.104757
0.178944
0.25976
0.344668
0.427176
0.493704
0.522804
0.514166
-0.642314
-0.622943
-0.569472
-0.490185
-0.408859
-0.334486
-0.267321
-0.20582
-0.147475
-0.089309
-0.0282731
0.0386255
0.114233
0.200976
0.300389
0.412115
0.531783
0.643603
0.718835
0.747111
-0.938061
-0.853445
-0.729022
-0.593043
-0.472717
-0.372403
-0.28909
-0.21809
-0.154222
-0.0925889
-0.0286526
0.0419946
0.123884
0.221643
0.339968
0.482781
0.650289
0.830906
0.989109
1.09438
-1.43107
-1.17264
-0.90107
-0.680022
-0.511641
-0.384929
-0.288776
-0.212666
-0.147784
-0.0870664
-0.0245744
0.0453409
0.128846
0.232915
0.366359
0.539744
0.763542
1.04398
1.36819
1.66532
-2.4939
-1.64641
-1.04525
-0.704772
-0.492754
-0.351361
-0.254173
-0.183191
-0.12578
-0.0732259
-0.0190311
0.0430779
0.120066
0.220453
0.357201
0.549489
0.825796
1.24452
1.92906
2.84572
-4.48173
-2.27181
-1.15565
-0.682463
-0.43575
-0.290255
-0.201367
-0.142601
-0.0978174
-0.0573896
-0.0153374
0.0348911
0.100397
0.189647
0.31898
0.517507
0.837155
1.41067
2.64127
4.94738
)
;

boundaryField
{
    movingWall
    {
        type            zeroGradient;
    }
    fixedWalls
    {
        type            zeroGradient;
    }
    frontAndBack
    {
        type            empty;
    }
}


// ************************************************************************* //
