/*--------------------------------*- C++ -*----------------------------------*\
  =========                 |
  \\      /  F ield         | OpenFOAM: The Open Source CFD Toolbox
   \\    /   O peration     | Website:  https://openfoam.org
    \\  /    A nd           | Version:  6
     \\/     M anipulation  |
\*---------------------------------------------------------------------------*/
FoamFile
{
    version     2.0;
    format      ascii;
    class       surfaceScalarField;
    location    "0.2";
    object      phi;
}
// * * * * * * * * * * * * * * * * * * * * * * * * * * * * * * * * * * * * * //

dimensions      [0 3 -1 0 0 0 0];

internalField   nonuniform List<scalar> 
760
(
6.96539e-09
-6.97014e-09
-3.19818e-08
3.89471e-08
-1.22655e-07
9.06728e-08
-2.50643e-07
1.27988e-07
-3.97341e-07
1.46698e-07
-5.44786e-07
1.47446e-07
-6.77346e-07
1.3256e-07
-7.82362e-07
1.05015e-07
-8.50379e-07
6.80173e-08
-8.75343e-07
2.49642e-08
-8.54604e-07
-2.07388e-08
-7.89321e-07
-6.52825e-08
-6.84672e-07
-1.04649e-07
-5.50055e-07
-1.34617e-07
-3.99028e-07
-1.51026e-07
-2.48773e-07
-1.50255e-07
-1.18805e-07
-1.29968e-07
-2.84905e-08
-9.0314e-08
8.47334e-09
-3.69635e-08
8.47347e-09
-3.77089e-08
3.07387e-08
-1.84488e-07
1.85726e-07
-4.37464e-07
3.43648e-07
-7.66635e-07
4.5716e-07
-1.13265e-06
5.12716e-07
-1.49573e-06
5.10524e-07
-1.82004e-06
4.56867e-07
-2.0759e-06
3.60878e-07
-2.24092e-06
2.33035e-07
-2.30069e-06
8.47318e-08
-2.24928e-06
-7.21452e-08
-2.08979e-06
-2.24777e-07
-1.83481e-06
-3.59624e-07
-1.50661e-06
-4.62818e-07
-1.13655e-06
-5.21087e-07
-7.6342e-07
-5.23383e-07
-4.30049e-07
-4.63338e-07
-1.77405e-07
-3.42958e-07
-3.44423e-08
-1.79926e-07
-2.59686e-08
-9.31267e-08
1.23865e-07
-3.58059e-07
4.50658e-07
-7.65231e-07
7.5082e-07
-1.26845e-06
9.60375e-07
-1.81366e-06
1.05793e-06
-2.34686e-06
1.04373e-06
-2.81919e-06
9.29203e-07
-3.18998e-06
7.3166e-07
-3.42842e-06
4.71478e-07
-3.51462e-06
1.70932e-07
-3.44049e-06
-1.46272e-07
-3.21039e-06
-4.54883e-07
-2.84165e-06
-7.28365e-07
-2.36471e-06
-9.39756e-07
-1.82227e-06
-1.06352e-06
-1.26699e-06
-1.07866e-06
-7.5704e-07
-9.7329e-07
-3.49103e-07
-7.50894e-07
-8.86322e-08
-4.40396e-07
-1.14601e-07
-1.45187e-07
2.69052e-07
-5.25358e-07
8.3083e-07
-1.08094e-06
1.3064e-06
-1.74582e-06
1.62526e-06
-2.45141e-06
1.76351e-06
-3.13219e-06
1.72451e-06
-3.73004e-06
1.52706e-06
-4.19701e-06
1.19863e-06
-4.49691e-06
7.71376e-07
-4.60635e-06
2.80377e-07
-4.51563e-06
-2.36997e-07
-4.22943e-06
-7.41074e-07
-3.7676e-06
-1.1902e-06
-3.16538e-06
-1.54198e-06
-2.47285e-06
-1.75605e-06
-1.7528e-06
-1.79871e-06
-1.07643e-06
-1.64966e-06
-5.16679e-07
-1.31064e-06
-1.3998e-07
-8.17094e-07
-2.54581e-07
-1.93412e-07
4.62465e-07
-6.84303e-07
1.32172e-06
-1.38379e-06
2.00589e-06
-2.20379e-06
2.44526e-06
-3.06021e-06
2.61994e-06
-3.87684e-06
2.54113e-06
-4.58827e-06
2.23848e-06
-5.1416e-06
1.75196e-06
-5.49736e-06
1.12714e-06
-5.62997e-06
4.12979e-07
-5.52828e-06
-3.38681e-07
-5.19643e-06
-1.07293e-06
-4.65475e-06
-1.73187e-06
-3.94072e-06
-2.25601e-06
-3.10921e-06
-2.58756e-06
-2.23134e-06
-2.67658e-06
-1.39122e-06
-2.48978e-06
-6.80079e-07
-2.02178e-06
-1.88613e-07
-1.30856e-06
-4.43194e-07
-2.39947e-07
7.02412e-07
-8.3936e-07
1.92113e-06
-1.68033e-06
2.84685e-06
-2.65156e-06
3.41649e-06
-3.65271e-06
3.62109e-06
-4.59735e-06
3.48577e-06
-5.41426e-06
3.05539e-06
-6.04756e-06
2.38527e-06
-6.45623e-06
1.5358e-06
-6.61353e-06
5.70276e-07
-6.50702e-06
-4.45191e-07
-6.13924e-06
-1.4407e-06
-5.52914e-06
-2.34198e-06
-4.71392e-06
-3.07122e-06
-3.7509e-06
-3.55059e-06
-2.71811e-06
-3.70936e-06
-1.7128e-06
-3.4951e-06
-8.46629e-07
-2.88795e-06
-2.37639e-07
-1.91755e-06
-6.80832e-07
-2.87167e-07
9.89579e-07
-9.95952e-07
2.62992e-06
-1.97785e-06
3.82875e-06
-3.09692e-06
4.53556e-06
-4.23622e-06
4.76038e-06
-5.3e-06
4.54955e-06
-6.21317e-06
3.96856e-06
-6.91914e-06
3.09124e-06
-7.37733e-06
1.994e-06
-7.56115e-06
7.54095e-07
-7.45703e-06
-5.49312e-07
-7.0649e-06
-1.83283e-06
-6.40014e-06
-3.00673e-06
-5.4968e-06
-3.97457e-06
-4.41155e-06
-4.63583e-06
-3.22717e-06
-4.89374e-06
-2.05364e-06
-4.66863e-06
-1.02502e-06
-3.91657e-06
-2.90594e-07
-2.65197e-06
-9.71426e-07
-3.37312e-07
1.32689e-06
-1.15904e-06
3.45165e-06
-2.28205e-06
4.95176e-06
-3.5436e-06
5.79711e-06
-4.81018e-06
6.02696e-06
-5.97869e-06
5.71806e-06
-6.97313e-06
4.963e-06
-7.73947e-06
3.85758e-06
-8.24042e-06
2.49495e-06
-8.45137e-06
9.65045e-07
-8.35813e-06
-6.42548e-07
-7.957e-06
-2.23397e-06
-7.2573e-06
-3.70642e-06
-6.28602e-06
-4.94585e-06
-5.09483e-06
-5.82702e-06
-3.76731e-06
-6.22126e-06
-2.42425e-06
-6.01169e-06
-1.22352e-06
-5.11731e-06
-3.50989e-07
-3.5245e-06
-1.32242e-06
-3.92662e-07
1.71955e-06
-1.33308e-06
4.39206e-06
-2.59635e-06
6.21503e-06
-3.98978e-06
7.19054e-06
-5.36409e-06
7.40128e-06
-6.61234e-06
6.96631e-06
-7.66237e-06
6.01303e-06
-8.46749e-06
4.6627e-06
-8.99777e-06
3.02523e-06
-9.23337e-06
1.20064e-06
-9.16054e-06
-7.15378e-07
-8.77103e-06
-2.62348e-06
-8.06527e-06
-4.41219e-06
-7.0582e-06
-5.95293e-06
-5.79008e-06
-7.09514e-06
-4.33876e-06
-7.67258e-06
-2.8313e-06
-7.51915e-06
-1.44946e-06
-6.49915e-06
-4.22374e-07
-4.55159e-06
-1.74479e-06
-4.56067e-07
2.17562e-06
-1.52269e-06
5.45869e-06
-2.92186e-06
7.6142e-06
-4.42688e-06
8.69556e-06
-5.87505e-06
8.84945e-06
-7.16153e-06
8.25278e-06
-8.2252e-06
7.0767e-06
-9.03349e-06
5.47099e-06
-9.56935e-06
3.56109e-06
-9.82161e-06
1.4529e-06
-9.77888e-06
-7.58106e-07
-9.42811e-06
-2.97425e-06
-8.75694e-06
-5.08336e-06
-7.7631e-06
-6.94677e-06
-6.46659e-06
-8.39165e-06
-4.92929e-06
-9.20987e-06
-3.27587e-06
-9.17257e-06
-1.70906e-06
-8.06596e-06
-5.08686e-07
-5.75196e-06
-2.25348e-06
-5.31837e-07
2.70746e-06
-1.73374e-06
6.66059e-06
-3.25731e-06
9.13776e-06
-4.8376e-06
1.02759e-05
-6.30393e-06
1.03158e-05
-7.56346e-06
9.51231e-06
-8.57646e-06
8.08971e-06
-9.33341e-06
6.22794e-06
-9.83696e-06
4.06464e-06
-1.00891e-05
1.70508e-06
-1.00842e-05
-7.63057e-07
-9.80495e-06
-3.25349e-06
-9.22422e-06
-5.66409e-06
-8.31472e-06
-7.85627e-06
-7.06565e-06
-9.64072e-06
-5.5085e-06
-1.0767e-05
-3.75072e-06
-1.09304e-05
-2.00724e-06
-9.80944e-06
-6.14817e-07
-7.14439e-06
-2.86829e-06
-6.27095e-07
3.33455e-06
-1.9745e-06
8.008e-06
-3.59765e-06
1.07609e-05
-5.1912e-06
1.18694e-05
-6.58828e-06
1.17129e-05
-7.72377e-06
1.06478e-05
-8.59348e-06
8.95941e-06
-9.22165e-06
6.85611e-06
-9.63842e-06
4.48142e-06
-9.86473e-06
1.93138e-06
-9.90276e-06
-7.25024e-07
-9.73181e-06
-3.42445e-06
-9.30997e-06
-6.08592e-06
-8.58034e-06
-8.5859e-06
-7.48922e-06
-1.07318e-05
-6.01851e-06
-1.22377e-05
-4.23522e-06
-1.27136e-05
-2.34667e-06
-1.1698e-05
-7.4745e-07
-8.7436e-06
-3.61574e-06
-7.53706e-07
4.08826e-06
-2.25569e-06
9.50999e-06
-3.9285e-06
1.24337e-05
-5.43263e-06
1.33735e-05
-6.62856e-06
1.29088e-05
-7.50276e-06
1.1522e-05
-8.10437e-06
9.56103e-06
-8.50287e-06
7.25461e-06
-8.76141e-06
4.73996e-06
-8.92284e-06
2.09281e-06
-9.00137e-06
-6.46492e-07
-8.97727e-06
-3.44854e-06
-8.79467e-06
-6.26852e-06
-8.36525e-06
-9.01532e-06
-7.58303e-06
-1.15141e-05
-6.35837e-06
-1.34624e-05
-4.68533e-06
-1.43867e-05
-2.72485e-06
-1.36585e-05
-9.16107e-07
-1.05523e-05
-4.53185e-06
-9.30934e-07
5.01919e-06
-2.58621e-06
1.11653e-05
-4.20998e-06
1.40575e-05
-5.45839e-06
1.46219e-05
-6.2622e-06
1.37126e-05
-6.69261e-06
1.19524e-05
-6.87082e-06
9.73924e-06
-6.91795e-06
7.30175e-06
-6.9332e-06
4.75521e-06
-6.98247e-06
2.14208e-06
-7.09307e-06
-5.35898e-07
-7.24951e-06
-3.2921e-06
-7.38865e-06
-6.12939e-06
-7.3964e-06
-9.00757e-06
-7.11279e-06
-1.17977e-05
-6.35807e-06
-1.42171e-05
-5.01299e-06
-1.57318e-05
-3.12555e-06
-1.55459e-05
-1.13387e-06
-1.2544e-05
-5.66572e-06
-1.18269e-06
6.20188e-06
-2.9514e-06
1.2934e-05
-4.33861e-06
1.54447e-05
-5.06879e-06
1.53521e-05
-5.21944e-06
1.38632e-05
-4.98475e-06
1.17177e-05
-4.56735e-06
9.32184e-06
-4.14036e-06
6.87476e-06
-3.8308e-06
4.44565e-06
-3.7199e-06
2.03118e-06
-3.84577e-06
-4.1003e-07
-4.20195e-06
-2.93592e-06
-4.72991e-06
-5.60143e-06
-5.30671e-06
-8.43077e-06
-5.73322e-06
-1.13712e-05
-5.73919e-06
-1.42111e-05
-5.03823e-06
-1.64327e-05
-3.49513e-06
-1.7089e-05
-1.41282e-06
-1.46263e-05
-7.07854e-06
-1.51653e-06
7.71841e-06
-3.25336e-06
1.46708e-05
-4.05578e-06
1.62471e-05
-3.88383e-06
1.51802e-05
-3.05703e-06
1.30365e-05
-1.91964e-06
1.05803e-05
-7.57173e-07
8.15937e-06
2.30472e-07
5.88711e-06
9.14349e-07
3.76178e-06
1.21625e-06
1.72928e-06
1.09559e-06
-2.89375e-07
5.46441e-07
-2.38677e-06
-3.93939e-07
-4.66105e-06
-1.62467e-06
-7.20004e-06
-2.94818e-06
-1.00477e-05
-4.0364e-06
-1.31229e-05
-4.42312e-06
-1.6046e-05
-3.66528e-06
-1.78468e-05
-1.73717e-06
-1.65545e-05
-8.81571e-06
-1.87187e-06
9.59028e-06
-3.17236e-06
1.59713e-05
-2.76608e-06
1.58408e-05
-1.159e-06
1.35731e-05
9.88293e-07
1.08892e-05
3.18371e-06
8.38491e-06
5.12825e-06
6.21483e-06
6.65797e-06
4.35739e-06
7.68593e-06
2.73381e-06
8.1648e-06
1.25042e-06
8.06538e-06
-1.89958e-07
7.36925e-06
-1.69064e-06
6.07581e-06
-3.36761e-06
4.2235e-06
-5.34773e-06
1.93825e-06
-7.76241e-06
-4.88383e-07
-1.06963e-05
-2.49423e-06
-1.40402e-05
-3.22784e-06
-1.71132e-05
-2.00087e-06
-1.77814e-05
-1.08166e-05
-2.04974e-06
1.164e-05
-1.78761e-06
1.57092e-05
9.07973e-07
1.31453e-05
4.52655e-06
9.95452e-06
8.11258e-06
7.30313e-06
1.1239e-05
5.25852e-06
1.37499e-05
3.70387e-06
1.56066e-05
2.50074e-06
1.68138e-05
1.52663e-06
1.73815e-05
6.82646e-07
1.7306e-05
-1.14419e-07
1.65609e-05
-9.45545e-07
1.51013e-05
-1.90796e-06
1.28712e-05
-3.11771e-06
9.84462e-06
-4.73578e-06
6.11425e-06
-6.96592e-06
2.07668e-06
-1.00026e-05
-1.21954e-06
-1.3817e-05
-1.95528e-06
-1.70457e-05
-1.27719e-05
-8.53353e-07
1.24934e-05
3.89581e-06
1.096e-05
1.0053e-05
6.98802e-06
1.55369e-05
4.47063e-06
1.99163e-05
2.92378e-06
2.32501e-05
1.92469e-06
2.56908e-05
1.26319e-06
2.73842e-05
8.07364e-07
2.84401e-05
4.70699e-07
2.89253e-05
1.97395e-07
2.88621e-05
-5.11506e-08
2.82264e-05
-3.09823e-07
2.69447e-05
-6.26311e-07
2.48816e-05
-1.05462e-06
2.18374e-05
-1.69154e-06
1.75717e-05
-2.70022e-06
1.19155e-05
-4.3464e-06
5.20375e-06
-7.10528e-06
-3.66434e-07
-1.14755e-05
-1.31383e-05
1.24934e-05
2.34534e-05
3.04414e-05
3.4912e-05
3.78358e-05
3.97605e-05
4.10237e-05
4.18311e-05
4.23018e-05
4.24991e-05
4.2448e-05
4.21382e-05
4.15119e-05
4.04572e-05
3.87657e-05
3.60655e-05
3.17191e-05
2.46138e-05
1.31383e-05
)
;

boundaryField
{
    movingWall
    {
        type            calculated;
        value           uniform 0;
    }
    fixedWalls
    {
        type            calculated;
        value           uniform 0;
    }
    frontAndBack
    {
        type            empty;
        value           nonuniform 0();
    }
}


// ************************************************************************* //
