/*--------------------------------*- C++ -*----------------------------------*\
  =========                 |
  \\      /  F ield         | OpenFOAM: The Open Source CFD Toolbox
   \\    /   O peration     | Website:  https://openfoam.org
    \\  /    A nd           | Version:  6
     \\/     M anipulation  |
\*---------------------------------------------------------------------------*/
FoamFile
{
    version     2.0;
    format      ascii;
    class       volVectorField;
    location    "0.2";
    object      U;
}
// * * * * * * * * * * * * * * * * * * * * * * * * * * * * * * * * * * * * * //

dimensions      [0 1 -1 0 0 0 0];

internalField   nonuniform List<vector> 
400
(
(0.000187044 -0.000188021 0)
(-5.31567e-05 2.3161e-05 0)
(-0.00137046 0.000281325 0)
(-0.00361928 0.000459443 0)
(-0.0064417 0.00054831 0)
(-0.00945501 0.000559247 0)
(-0.0123165 0.000506236 0)
(-0.0147405 0.000403276 0)
(-0.0165056 0.000263654 0)
(-0.0174532 0.000100446 0)
(-0.0174988 -7.38837e-05 0)
(-0.0166241 -0.000245272 0)
(-0.0148925 -0.000397846 0)
(-0.0124499 -0.000514188 0)
(-0.00952746 -0.000575878 0)
(-0.00643713 -0.000565237 0)
(-0.00355528 -0.000468008 0)
(-0.00128993 -0.000276918 0)
(1.47499e-06 -9.75038e-06 0)
(0.000198708 0.000198817 0)
(-4.6058e-06 3.14503e-05 0)
(-0.0017349 0.00174334 0)
(-0.0057871 0.00365967 0)
(-0.0117761 0.00506422 0)
(-0.0189189 0.00577171 0)
(-0.0263899 0.00579068 0)
(-0.0334192 0.00520315 0)
(-0.0393444 0.00412109 0)
(-0.0436415 0.00266824 0)
(-0.0459356 0.000978541 0)
(-0.0460266 -0.000813774 0)
(-0.0438797 -0.00255896 0)
(-0.0396522 -0.00409952 0)
(-0.0336934 -0.00527179 0)
(-0.026545 -0.00591653 0)
(-0.0189198 -0.00589797 0)
(-0.0116537 -0.00513374 0)
(-0.00562429 -0.00364416 0)
(-0.00161977 -0.00166707 0)
(1.81953e-05 2.8585e-05 0)
(-0.000259352 0.00132468 0)
(-0.0038179 0.00581518 0)
(-0.0106345 0.010204 0)
(-0.0199942 0.0133431 0)
(-0.0307529 0.0148608 0)
(-0.0417907 0.01475 0)
(-0.0520651 0.0131784 0)
(-0.0606706 0.0104001 0)
(-0.0668861 0.00671204 0)
(-0.0701999 0.00243804 0)
(-0.0703295 -0.00207845 0)
(-0.067234 -0.00647113 0)
(-0.0611292 -0.0103536 0)
(-0.0524944 -0.0133324 0)
(-0.0420685 -0.0150338 0)
(-0.0308192 -0.0151509 0)
(-0.0198767 -0.0135123 0)
(-0.010437 -0.0101842 0)
(-0.00366418 -0.00565115 0)
(-0.000227251 -0.00118617 0)
(-0.000478456 0.00371403 0)
(-0.00582362 0.0122848 0)
(-0.0153358 0.019864 0)
(-0.0278857 0.0250778 0)
(-0.0419368 0.0274442 0)
(-0.0561091 0.0269786 0)
(-0.0691578 0.0239687 0)
(-0.0800133 0.0188505 0)
(-0.0878281 0.0121405 0)
(-0.0920021 0.004404 0)
(-0.0922009 -0.00375525 0)
(-0.0883711 -0.0116956 0)
(-0.0807554 -0.0187437 0)
(-0.0699051 -0.0242166 0)
(-0.0566799 -0.0274685 0)
(-0.0422215 -0.0279686 0)
(-0.0278874 -0.0254135 0)
(-0.0151691 -0.0198775 0)
(-0.00565448 -0.0120297 0)
(-0.000437278 -0.00347414 0)
(-0.000668714 0.00710872 0)
(-0.00770761 0.0210136 0)
(-0.019836 0.03244 0)
(-0.0354716 0.0399633 0)
(-0.0526524 0.043114 0)
(-0.0697378 0.0420112 0)
(-0.0853117 0.0371195 0)
(-0.0981876 0.0291003 0)
(-0.107439 0.0187229 0)
(-0.112412 0.00682332 0)
(-0.112737 -0.00570828 0)
(-0.108341 -0.017928 0)
(-0.0994628 -0.028844 0)
(-0.0866781 -0.0374451 0)
(-0.0709121 -0.0427632 0)
(-0.053432 -0.0439819 0)
(-0.0358004 -0.0405918 0)
(-0.0198228 -0.0325868 0)
(-0.00757023 -0.0207102 0)
(-0.000621448 -0.00676126 0)
(-0.000848022 0.0114444 0)
(-0.00953592 0.0319212 0)
(-0.0242408 0.0478543 0)
(-0.0429044 0.0578957 0)
(-0.0631145 0.0617222 0)
(-0.0829674 0.0596651 0)
(-0.100898 0.052445 0)
(-0.115639 0.0409999 0)
(-0.126225 0.0263825 0)
(-0.13198 0.00971448 0)
(-0.132511 -0.0078218 0)
(-0.127714 -0.0249746 0)
(-0.117797 -0.0404212 0)
(-0.103311 -0.0527932 0)
(-0.0851959 -0.0607479 0)
(-0.0648022 -0.0631034 0)
(-0.0438826 -0.0590368 0)
(-0.0245819 -0.0483356 0)
(-0.00951427 -0.0316913 0)
(-0.000802508 -0.0110143 0)
(-0.00103206 0.0167097 0)
(-0.011391 0.0449957 0)
(-0.0286828 0.0660862 0)
(-0.0503397 0.0788209 0)
(-0.0734777 0.0831685 0)
(-0.0959358 0.0798042 0)
(-0.11603 0.0698026 0)
(-0.13246 0.0544383 0)
(-0.144266 0.0350742 0)
(-0.150782 0.0131189 0)
(-0.151611 -0.00996615 0)
(-0.14661 -0.0326378 0)
(-0.13592 -0.0532487 0)
(-0.120017 -0.0700564 0)
(-0.0997901 -0.0812895 0)
(-0.0766168 -0.0853014 0)
(-0.0524091 -0.0808147 0)
(-0.0296659 -0.0672448 0)
(-0.0116129 -0.0450807 0)
(-0.00100219 -0.0162747 0)
(-0.00123531 0.0229412 0)
(-0.0133522 0.0602845 0)
(-0.0332803 0.0871407 0)
(-0.057884 0.102667 0)
(-0.0837825 0.1073 0)
(-0.10858 0.10222 0)
(-0.130528 0.0889743 0)
(-0.148358 0.0692404 0)
(-0.16118 0.0447116 0)
(-0.168391 0.0170686 0)
(-0.169609 -0.0119851 0)
(-0.164651 -0.0406581 0)
(-0.153554 -0.0670101 0)
(-0.136654 -0.0889276 0)
(-0.114703 -0.104161 0)
(-0.0890129 -0.110486 0)
(-0.0615906 -0.10599 0)
(-0.0352791 -0.0894978 0)
(-0.0139929 -0.0610891 0)
(-0.00124216 -0.0226566 0)
(-0.00147361 0.0302198 0)
(-0.0154994 0.0778841 0)
(-0.038131 0.111021 0)
(-0.0655721 0.129292 0)
(-0.0939184 0.133836 0)
(-0.120589 0.126545 0)
(-0.143859 0.109578 0)
(-0.162594 0.0850884 0)
(-0.176065 0.0551087 0)
(-0.183801 0.0215541 0)
(-0.185479 -0.0136967 0)
(-0.180874 -0.0486818 0)
(-0.169884 -0.0812362 0)
(-0.152626 -0.108908 0)
(-0.129594 -0.12894 0)
(-0.101901 -0.138411 0)
(-0.0715213 -0.134553 0)
(-0.0415877 -0.115299 0)
(-0.01678 -0.0800148 0)
(-0.00154653 -0.0303448 0)
(-0.00176871 0.0386756 0)
(-0.0179289 0.0979302 0)
(-0.0433216 0.137691 0)
(-0.0733565 0.158412 0)
(-0.103587 0.162272 0)
(-0.131342 0.152143 0)
(-0.155066 0.130965 0)
(-0.1739 0.101433 0)
(-0.187403 0.0659102 0)
(-0.19533 0.0264806 0)
(-0.19748 -0.0149076 0)
(-0.19361 -0.0562516 0)
(-0.183421 -0.0952481 0)
(-0.166739 -0.129213 0)
(-0.14365 -0.154889 0)
(-0.114866 -0.168547 0)
(-0.0821227 -0.166308 0)
(-0.0487052 -0.144805 0)
(-0.0201069 -0.102221 0)
(-0.00194617 -0.0395982 0)
(-0.00215624 0.0485076 0)
(-0.0207807 0.120593 0)
(-0.0489431 0.167013 0)
(-0.0810869 0.189498 0)
(-0.112243 0.191753 0)
(-0.139823 0.177985 0)
(-0.162656 0.152101 0)
(-0.180362 0.117394 0)
(-0.192944 0.0765165 0)
(-0.200498 0.0316227 0)
(-0.203026 -0.0154244 0)
(-0.200279 -0.0627164 0)
(-0.19182 -0.10808 0)
(-0.177018 -0.148661 0)
(-0.155403 -0.180802 0)
(-0.127023 -0.19991 0)
(-0.0930563 -0.200712 0)
(-0.0566678 -0.178016 0)
(-0.0241269 -0.128099 0)
(-0.00248583 -0.0507633 0)
(-0.002699 0.0600269 0)
(-0.0242761 0.146075 0)
(-0.055095 0.198664 0)
(-0.0884478 0.221621 0)
(-0.118965 0.2209 0)
(-0.14445 0.202486 0)
(-0.164436 0.171442 0)
(-0.17927 0.131668 0)
(-0.189575 0.0860188 0)
(-0.195944 0.0365419 0)
(-0.198623 -0.0151243 0)
(-0.197436 -0.067438 0)
(-0.191748 -0.118494 0)
(-0.180511 -0.165598 0)
(-0.162505 -0.204851 0)
(-0.1368 -0.230837 0)
(-0.103574 -0.236639 0)
(-0.0653799 -0.2146 0)
(-0.0290283 -0.158019 0)
(-0.00323594 -0.0643035 0)
(-0.00351062 0.0737361 0)
(-0.0287603 0.174596 0)
(-0.0618382 0.231973 0)
(-0.0947838 0.253223 0)
(-0.122203 0.247585 0)
(-0.142799 0.223339 0)
(-0.157249 0.186825 0)
(-0.166904 0.142467 0)
(-0.173212 0.0931334 0)
(-0.177262 0.0406153 0)
(-0.179655 -0.0139526 0)
(-0.180374 -0.0695888 0)
(-0.178649 -0.124966 0)
(-0.173004 -0.177845 0)
(-0.161388 -0.224434 0)
(-0.141595 -0.258724 0)
(-0.112244 -0.272049 0)
(-0.0744831 -0.253617 0)
(-0.0350396 -0.192217 0)
(-0.00431401 -0.0808524 0)
(-0.00479574 0.0904498 0)
(-0.0347208 0.206328 0)
(-0.0689981 0.265602 0)
(-0.0986583 0.281725 0)
(-0.119245 0.268651 0)
(-0.131089 0.237364 0)
(-0.136569 0.195423 0)
(-0.138273 0.147524 0)
(-0.138487 0.0962877 0)
(-0.138895 0.0429561 0)
(-0.14045 -0.0120103 0)
(-0.143294 -0.0684181 0)
(-0.146661 -0.125801 0)
(-0.148784 -0.18276 0)
(-0.14686 -0.236107 0)
(-0.137242 -0.279775 0)
(-0.116449 -0.30356 0)
(-0.0830433 -0.293053 0)
(-0.0423803 -0.230574 0)
(-0.00591576 -0.101271 0)
(-0.00684629 0.111386 0)
(-0.0425835 0.241029 0)
(-0.075487 0.296912 0)
(-0.0970006 0.303038 0)
(-0.105204 0.279605 0)
(-0.103437 0.240446 0)
(-0.0959647 0.193849 0)
(-0.0867911 0.144278 0)
(-0.0789217 0.0936999 0)
(-0.0744224 0.0425561 0)
(-0.0744822 -0.00954497 0)
(-0.0794379 -0.06333 0)
(-0.0886866 -0.119381 0)
(-0.100479 -0.177494 0)
(-0.111631 -0.235718 0)
(-0.117293 -0.288849 0)
(-0.111432 -0.325779 0)
(-0.0887752 -0.329223 0)
(-0.0509881 -0.272132 0)
(-0.00829324 -0.126647 0)
(-0.00985411 0.138408 0)
(-0.0519263 0.277313 0)
(-0.0776936 0.320887 0)
(-0.0830575 0.310663 0)
(-0.0717379 0.274435 0)
(-0.0505249 0.227746 0)
(-0.0263571 0.178591 0)
(-0.00408648 0.130379 0)
(0.0131192 0.083884 0)
(0.0232643 0.0385297 0)
(0.0251986 -0.00694154 0)
(0.0184472 -0.0541133 0)
(0.00325872 -0.104597 0)
(-0.0191122 -0.159561 0)
(-0.0458523 -0.218863 0)
(-0.0718011 -0.279297 0)
(-0.0886718 -0.331273 0)
(-0.0864896 -0.354511 0)
(-0.059454 -0.314112 0)
(-0.0114918 -0.158405 0)
(-0.0137738 0.175396 0)
(-0.0592764 0.311321 0)
(-0.0658557 0.328169 0)
(-0.0431132 0.295251 0)
(-0.00296498 0.245806 0)
(0.0423105 0.194548 0)
(0.0847449 0.147156 0)
(0.120061 0.104703 0)
(0.145951 0.0663573 0)
(0.161202 0.0305486 0)
(0.165114 -0.00460551 0)
(0.157218 -0.0412035 0)
(0.137263 -0.0815408 0)
(0.105476 -0.127938 0)
(0.0632192 -0.182285 0)
(0.0142979 -0.244563 0)
(-0.0331069 -0.309377 0)
(-0.0644494 -0.358666 0)
(-0.0627687 -0.350216 0)
(-0.0152124 -0.199664 0)
(-0.0183002 0.226784 0)
(-0.0514675 0.331483 0)
(-0.0161399 0.302991 0)
(0.0526367 0.244781 0)
(0.12775 0.187703 0)
(0.196058 0.139554 0)
(0.252843 0.100674 0)
(0.296603 0.0691957 0)
(0.327218 0.0428463 0)
(0.344961 0.0194985 0)
(0.349947 -0.00280577 0)
(0.341907 -0.0260728 0)
(0.320093 -0.0525977 0)
(0.283407 -0.085075 0)
(0.230783 -0.126814 0)
(0.162348 -0.181195 0)
(0.0818331 -0.24937 0)
(0.00204196 -0.323476 0)
(-0.046403 -0.365614 0)
(-0.0185013 -0.252226 0)
(0.000981969 0.256059 0)
(0.0216969 0.296612 0)
(0.135299 0.222443 0)
(0.258744 0.154335 0)
(0.359123 0.105653 0)
(0.435878 0.071946 0)
(0.493002 0.0484858 0)
(0.53384 0.031642 0)
(0.560982 0.0188192 0)
(0.576216 0.0082025 0)
(0.580407 -0.00156402 0)
(0.573642 -0.01173 0)
(0.554879 -0.023899 0)
(0.522099 -0.0399701 0)
(0.471967 -0.0630225 0)
(0.399748 -0.0977856 0)
(0.299469 -0.15074 0)
(0.16944 -0.227838 0)
(0.0408154 -0.314327 0)
(0.0050144 -0.274289 0)
(0.267416 0.116491 0)
(0.377133 0.101432 0)
(0.538777 0.0535714 0)
(0.658121 0.0285243 0)
(0.732099 0.0165349 0)
(0.779103 0.00983176 0)
(0.809993 0.00583594 0)
(0.830148 0.00339136 0)
(0.842613 0.00179062 0)
(0.849158 0.000617296 0)
(0.850496 -0.000416438 0)
(0.847089 -0.00142176 0)
(0.837991 -0.00281104 0)
(0.821656 -0.00490568 0)
(0.795178 -0.00836677 0)
(0.752854 -0.0144177 0)
(0.683131 -0.0256867 0)
(0.565492 -0.0500998 0)
(0.398162 -0.0994446 0)
(0.276537 -0.118106 0)
)
;

boundaryField
{
    movingWall
    {
        type            fixedValue;
        value           uniform (1 0 0);
    }
    fixedWalls
    {
        type            noSlip;
    }
    frontAndBack
    {
        type            empty;
    }
}


// ************************************************************************* //
