/*--------------------------------*- C++ -*----------------------------------*\
  =========                 |
  \\      /  F ield         | OpenFOAM: The Open Source CFD Toolbox
   \\    /   O peration     | Website:  https://openfoam.org
    \\  /    A nd           | Version:  6
     \\/     M anipulation  |
\*---------------------------------------------------------------------------*/
FoamFile
{
    version     2.0;
    format      ascii;
    class       volScalarField;
    location    "0.1";
    object      Co;
}
// * * * * * * * * * * * * * * * * * * * * * * * * * * * * * * * * * * * * * //

dimensions      [0 0 0 0 0 0 0];

internalField   nonuniform List<scalar> 
400
(
0.000279617
0.000717867
0.00225185
0.00483496
0.00779815
0.0107735
0.0134447
0.0155584
0.0169266
0.0174283
0.0174283
0.0170113
0.0156979
0.0135901
0.0108752
0.00782546
0.00478968
0.00216814
0.000673692
0.000307839
0.000673606
0.00426856
0.0103539
0.0176232
0.0252356
0.0324247
0.0385314
0.0430307
0.0455457
0.0458583
0.0457736
0.0456513
0.0432904
0.0388553
0.0327013
0.0253732
0.0175884
0.0101895
0.00408099
0.000608011
0.00220959
0.010621
0.0218488
0.0340423
0.0458984
0.0563637
0.0646024
0.0699975
0.0721526
0.0709009
0.0706558
0.0722246
0.070368
0.0651521
0.0569112
0.0462641
0.0341192
0.0216566
0.0103158
0.0020238
0.00506886
0.0191535
0.0361243
0.0534104
0.0692686
0.0824164
0.0919358
0.097228
0.0979866
0.0941927
0.0937155
0.0980305
0.0977978
0.0928739
0.083445
0.0700792
0.0537779
0.0360104
0.0187565
0.00477313
0.00888601
0.0298037
0.0531052
0.0756425
0.0953122
0.110678
0.120823
0.125251
0.123825
0.116735
0.115895
0.123844
0.126164
0.122416
0.112539
0.0969428
0.0766309
0.0532957
0.0294115
0.00848256
0.0136266
0.0425948
0.0728661
0.100829
0.12413
0.14128
0.151461
0.154368
0.150097
0.139091
0.137648
0.150041
0.155779
0.154058
0.144467
0.127142
0.102969
0.0737623
0.0424196
0.0131568
0.0193071
0.0576115
0.095534
0.129082
0.155778
0.17422
0.183816
0.184551
0.176828
0.161376
0.158941
0.176541
0.186573
0.187799
0.179345
0.160925
0.133135
0.0977606
0.0580272
0.0188747
0.0259898
0.0749892
0.121242
0.16044
0.190142
0.209221
0.217478
0.215321
0.203541
0.183187
0.179193
0.202709
0.217949
0.223183
0.216945
0.198327
0.167399
0.125681
0.0765777
0.0257874
0.0337809
0.0949086
0.150092
0.19479
0.226818
0.245583
0.251509
0.245598
0.229127
0.203494
0.197195
0.227223
0.248613
0.259101
0.256488
0.238996
0.205829
0.157887
0.0984964
0.0341178
0.0428421
0.117602
0.182125
0.231777
0.264972
0.282014
0.284264
0.273527
0.251681
0.220498
0.211014
0.247931
0.276377
0.29355
0.29639
0.281952
0.248121
0.194633
0.124276
0.044171
0.0534232
0.143378
0.217277
0.270683
0.303147
0.316408
0.313157
0.29626
0.268308
0.231459
0.217874
0.261687
0.297938
0.323358
0.333942
0.325275
0.293345
0.235923
0.154456
0.0563612
0.0659323
0.172659
0.255292
0.310201
0.338971
0.345522
0.334376
0.309711
0.274917
0.23251
0.214071
0.264211
0.308665
0.343872
0.364914
0.365661
0.339552
0.281277
0.189586
0.0712692
0.0810666
0.20601
0.295499
0.348024
0.368664
0.364528
0.342511
0.308288
0.266036
0.218517
0.194909
0.250024
0.302452
0.348671
0.38309
0.397823
0.383159
0.329298
0.230116
0.089745
0.100031
0.244057
0.336263
0.380039
0.386229
0.366369
0.330138
0.284676
0.234722
0.183047
0.154745
0.212517
0.271731
0.329398
0.379809
0.413706
0.417981
0.376842
0.276091
0.113069
0.124828
0.286974
0.373667
0.398769
0.382157
0.340901
0.287405
0.229757
0.172695
0.118572
0.0871777
0.144271
0.207782
0.275875
0.34366
0.401578
0.433745
0.417429
0.326271
0.143101
0.158312
0.332619
0.398486
0.390592
0.341543
0.273992
0.201883
0.135802
0.0904777
0.0566127
0.0286611
0.0673892
0.110819
0.1768
0.260652
0.345201
0.413978
0.438236
0.375746
0.181995
0.20281
0.371014
0.389898
0.331289
0.259135
0.226432
0.222881
0.21723
0.206127
0.186781
0.166352
0.193517
0.212122
0.224642
0.234495
0.25993
0.333514
0.414924
0.410178
0.230094
0.25375
0.370165
0.31802
0.283601
0.303582
0.326434
0.346597
0.360467
0.36576
0.360814
0.350038
0.364395
0.367871
0.36178
0.348145
0.33061
0.315277
0.341598
0.393284
0.278696
0.27053
0.319225
0.341575
0.400409
0.457147
0.503999
0.539661
0.564426
0.578855
0.583264
0.580623
0.584125
0.577398
0.560028
0.531157
0.490058
0.437748
0.38164
0.344682
0.282494
0.27053
0.491604
0.627344
0.712086
0.766412
0.801739
0.824819
0.83957
0.848184
0.851796
0.851796
0.850824
0.845076
0.83364
0.81453
0.783876
0.734384
0.652604
0.514172
0.282494
)
;

boundaryField
{
    movingWall
    {
        type            zeroGradient;
    }
    fixedWalls
    {
        type            zeroGradient;
    }
    frontAndBack
    {
        type            empty;
    }
}


// ************************************************************************* //
