/*--------------------------------*- C++ -*----------------------------------*\
| =========                 |                                                 |
| \\      /  F ield         | OpenFOAM: The Open Source CFD Toolbox           |
|  \\    /   O peration     | Version:  5.0                                   |
|   \\  /    A nd           | Web:      www.OpenFOAM.org                      |
|    \\/     M anipulation  |                                                 |
\*---------------------------------------------------------------------------*/
FoamFile
{
    version     2.0;
    format      ascii;
    class       volScalarField;
    location    "3";
    object      p;
}
// * * * * * * * * * * * * * * * * * * * * * * * * * * * * * * * * * * * * * //

dimensions      [0 2 -2 0 0 0 0];

internalField   nonuniform List<scalar> 
400
(
3.78649e-08
9.86202e-06
1.42564e-05
2.34618e-05
3.8773e-05
0.000211043
-0.000133453
-0.00126359
-0.00257858
-0.00350863
-0.00394931
-0.00393617
-0.00359822
-0.00296127
-0.0018606
-0.000190446
0.0021695
0.0051462
0.00771731
0.00868297
4.80133e-06
9.36912e-06
1.89994e-05
4.39745e-05
-4.00211e-06
-0.000324767
-0.00108433
-0.00225807
-0.00343877
-0.00423569
-0.00457643
-0.00446936
-0.0040747
-0.0034916
-0.00260418
-0.00131391
0.00056863
0.00318705
0.00603023
0.00746936
-7.58675e-06
-2.10596e-06
-9.65223e-06
-0.000111057
-0.000470869
-0.00125842
-0.00239646
-0.00369424
-0.00481621
-0.00546289
-0.00562504
-0.00533383
-0.00470295
-0.00401884
-0.00327536
-0.00240384
-0.00125398
0.000644997
0.00326941
0.00496849
-7.49535e-05
-8.47967e-05
-0.000143684
-0.000467152
-0.00121529
-0.00240759
-0.00379918
-0.00509988
-0.00609999
-0.00655357
-0.00645604
-0.00601327
-0.00529488
-0.00450299
-0.00377565
-0.00310644
-0.00249444
-0.00131072
0.000553264
0.00225565
-0.000238296
-0.00027766
-0.000427463
-0.000976079
-0.00207171
-0.00354566
-0.00507151
-0.00639486
-0.00744032
-0.00790959
-0.00774455
-0.00709867
-0.00615617
-0.00517144
-0.00433327
-0.00368938
-0.0032931
-0.00259654
-0.00147815
-3.50767e-05
-0.000506497
-0.000575131
-0.000824574
-0.00156895
-0.00289837
-0.00458778
-0.00625385
-0.00766834
-0.00882504
-0.0093694
-0.00915128
-0.00836066
-0.00719277
-0.00597513
-0.0049739
-0.0042509
-0.00389726
-0.0034413
-0.00284578
-0.00170582
-0.000860971
-0.000955675
-0.0012582
-0.00214491
-0.00360958
-0.00543988
-0.00725964
-0.00874212
-0.00994042
-0.0105559
-0.0103355
-0.00942125
-0.00805184
-0.00662993
-0.00550449
-0.00470128
-0.00435039
-0.0039777
-0.00367709
-0.00283109
-0.00124633
-0.00136656
-0.00165618
-0.00258564
-0.00410455
-0.00593936
-0.00783924
-0.009351
-0.0105254
-0.0111473
-0.0109316
-0.00995434
-0.00847658
-0.00695539
-0.00579137
-0.00494746
-0.00462617
-0.0042398
-0.00416796
-0.00346739
-0.00159345
-0.0017289
-0.0019994
-0.00283329
-0.00428736
-0.00601499
-0.00789462
-0.00937955
-0.010484
-0.0110503
-0.0108283
-0.0098484
-0.00838219
-0.00689389
-0.0057791
-0.00496076
-0.0047212
-0.00425409
-0.00439678
-0.00375889
-0.00187241
-0.00199428
-0.00226776
-0.00292321
-0.00416054
-0.00569389
-0.00739821
-0.00881582
-0.00981035
-0.0102609
-0.0100152
-0.00910586
-0.00778138
-0.00646684
-0.00548794
-0.00479743
-0.00461804
-0.00410109
-0.00445871
-0.0037952
-0.00206395
-0.00216553
-0.00241091
-0.00286878
-0.00379977
-0.00501438
-0.00638585
-0.00760961
-0.00845108
-0.00879579
-0.00857807
-0.00784393
-0.0068177
-0.00579363
-0.00502787
-0.00449649
-0.00439456
-0.00384339
-0.00438574
-0.00367329
-0.00216868
-0.00224929
-0.00242769
-0.00272192
-0.00331076
-0.00414153
-0.00512099
-0.00604723
-0.00670915
-0.00700228
-0.00690351
-0.00644413
-0.00575639
-0.0050504
-0.0045205
-0.00414604
-0.00412663
-0.0035233
-0.00426227
-0.00343476
-0.00222461
-0.00227432
-0.00238095
-0.00255457
-0.00287426
-0.00337201
-0.00400216
-0.00464308
-0.00516598
-0.00546018
-0.00547455
-0.00522715
-0.00482483
-0.00439616
-0.00406222
-0.00380941
-0.00387583
-0.00319779
-0.00415579
-0.0030868
-0.00225489
-0.00226695
-0.00230823
-0.00239821
-0.0025673
-0.00285182
-0.0032427
-0.00369113
-0.0040888
-0.00431774
-0.00438627
-0.00430837
-0.00412494
-0.00389092
-0.00368923
-0.00352344
-0.00366252
-0.00290099
-0.0040951
-0.00260698
-0.00227189
-0.00224745
-0.00223001
-0.00226008
-0.00235596
-0.0025336
-0.00279509
-0.00311056
-0.0033974
-0.00361383
-0.00373694
-0.00374176
-0.00366613
-0.00353711
-0.00341266
-0.00329802
-0.00347418
-0.00266811
-0.00401974
-0.00201325
-0.00228273
-0.00221194
-0.00214223
-0.00212943
-0.00218566
-0.00231444
-0.00251501
-0.00276476
-0.00300736
-0.00321234
-0.00334914
-0.00339869
-0.00337676
-0.00330893
-0.00323026
-0.00314002
-0.00330227
-0.00255243
-0.00388333
-0.00129857
-0.00230141
-0.00217218
-0.00204939
-0.00200081
-0.00203474
-0.00214408
-0.00231928
-0.00253945
-0.0027627
-0.00296474
-0.00311467
-0.00319554
-0.00321714
-0.00318797
-0.0031452
-0.00310004
-0.00323172
-0.00257267
-0.00363492
-0.000331839
-0.00236122
-0.00210738
-0.00194326
-0.00187018
-0.0018956
-0.00200625
-0.00218183
-0.00239957
-0.00261904
-0.00282266
-0.00298111
-0.00308087
-0.0031228
-0.00311085
-0.00306882
-0.00300496
-0.00300336
-0.00255746
-0.00296477
0.00220732
-0.00262252
-0.00213821
-0.00190584
-0.00177955
-0.00179851
-0.00191778
-0.00210002
-0.00232981
-0.00255638
-0.00277034
-0.00293201
-0.00304466
-0.00310046
-0.00311791
-0.00310639
-0.00312616
-0.00326762
-0.00255076
0.000378918
0.0121675
-0.00372705
-0.00158308
-0.00135034
-0.00143551
-0.00153935
-0.00167523
-0.0018777
-0.00212099
-0.00238561
-0.00262967
-0.00283699
-0.00297768
-0.003075
-0.0031092
-0.00307697
-0.00278924
-0.00183043
0.0017614
0.013081
0.0348155
)
;

boundaryField
{
    movingWall
    {
        type            zeroGradient;
    }
    fixedWalls
    {
        type            zeroGradient;
    }
    frontAndBack
    {
        type            empty;
    }
}


// ************************************************************************* //
