/*--------------------------------*- C++ -*----------------------------------*\
| =========                 |                                                 |
| \\      /  F ield         | OpenFOAM: The Open Source CFD Toolbox           |
|  \\    /   O peration     | Version:  5.0                                   |
|   \\  /    A nd           | Web:      www.OpenFOAM.org                      |
|    \\/     M anipulation  |                                                 |
\*---------------------------------------------------------------------------*/
FoamFile
{
    version     2.0;
    format      ascii;
    class       surfaceScalarField;
    location    "3";
    object      phi;
}
// * * * * * * * * * * * * * * * * * * * * * * * * * * * * * * * * * * * * * //

dimensions      [0 3 -1 0 0 0 0];

internalField   nonuniform List<scalar> 
760
(
8.33968e-13
-4.5721e-12
-1.29166e-08
1.29173e-08
-7.24146e-08
5.94978e-08
-2.68554e-07
1.9614e-07
-8.27988e-07
5.59433e-07
-2.04344e-06
1.21545e-06
-3.64026e-06
1.59682e-06
-4.90803e-06
1.26777e-06
-5.78427e-06
8.76236e-07
-6.39612e-06
6.11855e-07
-6.7009e-06
3.0478e-07
-6.83249e-06
1.3159e-07
-6.78406e-06
-4.84316e-08
-6.64769e-06
-1.36373e-07
-6.37153e-06
-2.76162e-07
-5.87884e-06
-4.92683e-07
-5.03051e-06
-8.48331e-07
-3.55083e-06
-1.47968e-06
-1.54857e-06
-2.00226e-06
-1.54857e-06
-7.54705e-08
7.54659e-08
-2.14281e-07
1.51728e-07
-5.35316e-07
3.80532e-07
-1.3194e-06
9.80223e-07
-2.74518e-06
1.98521e-06
-4.24594e-06
2.71621e-06
-5.14853e-06
2.4994e-06
-5.80376e-06
1.92301e-06
-6.38692e-06
1.4594e-06
-6.67716e-06
9.0209e-07
-6.82174e-06
4.49361e-07
-6.76234e-06
7.21936e-08
-6.57789e-06
-2.32878e-07
-6.32173e-06
-3.92537e-07
-5.97497e-06
-6.22923e-07
-5.56037e-06
-9.07285e-07
-4.9299e-06
-1.4788e-06
-3.8163e-06
-2.59327e-06
-2.06628e-06
-3.75229e-06
-3.61485e-06
-2.06266e-07
2.81732e-07
-5.65367e-07
5.10829e-07
-1.25006e-06
1.06522e-06
-2.43007e-06
2.16023e-06
-3.68508e-06
3.24023e-06
-4.51887e-06
3.55e-06
-5.04378e-06
3.02431e-06
-5.3776e-06
2.25683e-06
-5.52164e-06
1.60343e-06
-5.4446e-06
8.25047e-07
-5.23882e-06
2.43586e-07
-4.95677e-06
-2.09862e-07
-4.585e-06
-6.04649e-07
-4.25243e-06
-7.25105e-07
-3.95823e-06
-9.1712e-07
-3.71404e-06
-1.15148e-06
-3.4535e-06
-1.73934e-06
-2.93596e-06
-3.11081e-06
-1.81466e-06
-4.87358e-06
-5.42952e-06
-3.29091e-07
6.10822e-07
-8.48383e-07
1.03012e-06
-1.65804e-06
1.87488e-06
-2.72962e-06
3.23181e-06
-3.5524e-06
4.06301e-06
-4.05878e-06
4.05638e-06
-4.34856e-06
3.31409e-06
-4.57727e-06
2.48554e-06
-4.73413e-06
1.7603e-06
-4.74498e-06
8.3589e-07
-4.51092e-06
9.5317e-09
-4.08737e-06
-6.33416e-07
-3.56516e-06
-1.12686e-06
-3.00276e-06
-1.2875e-06
-2.52631e-06
-1.39357e-06
-2.21934e-06
-1.45844e-06
-2.14096e-06
-1.81773e-06
-2.09142e-06
-3.16035e-06
-1.34449e-06
-5.62051e-06
-6.77401e-06
-3.97467e-07
1.00829e-06
-9.61923e-07
1.59458e-06
-1.70986e-06
2.62281e-06
-2.50612e-06
4.02808e-06
-3.04253e-06
4.59942e-06
-3.44142e-06
4.45527e-06
-3.75666e-06
3.62933e-06
-4.06316e-06
2.79205e-06
-4.28995e-06
1.98708e-06
-4.33908e-06
8.85026e-07
-4.16135e-06
-1.68205e-07
-3.74772e-06
-1.04704e-06
-3.18337e-06
-1.69122e-06
-2.53457e-06
-1.9363e-06
-1.92935e-06
-1.9988e-06
-1.43246e-06
-1.95533e-06
-1.21225e-06
-2.03793e-06
-1.26454e-06
-3.10806e-06
-1.04325e-06
-5.8418e-06
-7.81726e-06
-3.95812e-07
1.4041e-06
-9.12319e-07
2.11109e-06
-1.50776e-06
3.21826e-06
-2.05312e-06
4.57343e-06
-2.42904e-06
4.97534e-06
-2.74002e-06
4.76625e-06
-3.04648e-06
3.93578e-06
-3.32435e-06
3.06991e-06
-3.47944e-06
2.14218e-06
-3.50697e-06
9.12553e-07
-3.37018e-06
-3.04993e-07
-3.03222e-06
-1.38501e-06
-2.55276e-06
-2.17068e-06
-1.99844e-06
-2.49062e-06
-1.47334e-06
-2.52389e-06
-1.0284e-06
-2.40027e-06
-7.60213e-07
-2.30612e-06
-7.37797e-07
-3.13048e-06
-6.80799e-07
-5.8988e-06
-8.49806e-06
-3.2435e-07
1.72845e-06
-7.28766e-07
2.5155e-06
-1.10592e-06
3.59541e-06
-1.38805e-06
4.85556e-06
-1.61253e-06
5.19982e-06
-1.8323e-06
4.98603e-06
-2.05184e-06
4.15532e-06
-2.23049e-06
3.24857e-06
-2.3158e-06
2.22749e-06
-2.32432e-06
9.21071e-07
-2.23278e-06
-3.96531e-07
-2.00265e-06
-1.61514e-06
-1.65574e-06
-2.51759e-06
-1.25117e-06
-2.89518e-06
-8.83625e-07
-2.89144e-06
-5.84216e-07
-2.69968e-06
-4.24331e-07
-2.46601e-06
-4.52357e-07
-3.10245e-06
-5.41775e-07
-5.80938e-06
-9.03983e-06
-2.16249e-07
1.9447e-06
-4.58514e-07
2.75777e-06
-6.00633e-07
3.73753e-06
-6.61097e-07
4.91602e-06
-7.15327e-07
5.25405e-06
-7.95586e-07
5.06629e-06
-9.15034e-07
4.27476e-06
-9.68205e-07
3.30174e-06
-9.76584e-07
2.23587e-06
-9.62871e-07
9.07358e-07
-8.87362e-07
-4.7204e-07
-7.47892e-07
-1.75461e-06
-5.8503e-07
-2.68045e-06
-4.3567e-07
-3.04454e-06
-2.97747e-07
-3.02936e-06
-2.07611e-07
-2.78982e-06
-1.65157e-07
-2.50846e-06
-2.434e-07
-3.02421e-06
-3.52002e-07
-5.70078e-06
-9.39183e-06
-7.94716e-08
2.02417e-06
-1.78151e-07
2.85645e-06
-8.2921e-08
3.6423e-06
4.65105e-08
4.78659e-06
1.42653e-07
5.15791e-06
2.23265e-07
4.98568e-06
2.15678e-07
4.28235e-06
2.50022e-07
3.26739e-06
3.23848e-07
2.16204e-06
3.78039e-07
8.53167e-07
4.38795e-07
-5.32796e-07
4.74835e-07
-1.79065e-06
4.27131e-07
-2.63274e-06
3.56676e-07
-2.97409e-06
2.65859e-07
-2.93855e-06
1.4593e-07
-2.66989e-06
7.27082e-08
-2.43524e-06
-1.01899e-07
-2.8496e-06
-2.97849e-07
-5.50483e-06
-9.68968e-06
5.72527e-08
1.96692e-06
6.89158e-08
2.84478e-06
3.10086e-07
3.40113e-06
7.5468e-07
4.342e-06
1.03416e-06
4.87842e-06
1.28004e-06
4.7398e-06
1.40489e-06
4.1575e-06
1.50081e-06
3.17147e-06
1.62088e-06
2.04197e-06
1.68653e-06
7.87521e-07
1.66008e-06
-5.06352e-07
1.53503e-06
-1.6656e-06
1.29378e-06
-2.39149e-06
9.94721e-07
-2.67503e-06
6.91345e-07
-2.63517e-06
4.32235e-07
-2.41078e-06
2.07046e-07
-2.21005e-06
-3.11773e-08
-2.61138e-06
-2.112e-07
-5.32481e-06
-9.90088e-06
1.48777e-07
1.81814e-06
2.55086e-07
2.73847e-06
5.38814e-07
3.1174e-06
1.13275e-06
3.74806e-06
1.6997e-06
4.31147e-06
2.14189e-06
4.29761e-06
2.44246e-06
3.85694e-06
2.62011e-06
2.99381e-06
2.73363e-06
1.92845e-06
2.77241e-06
7.48748e-07
2.65664e-06
-3.90587e-07
2.35785e-06
-1.3668e-06
1.93934e-06
-1.97298e-06
1.48139e-06
-2.21708e-06
1.03547e-06
-2.18925e-06
6.53994e-07
-2.0293e-06
3.22634e-07
-1.87869e-06
3.51307e-08
-2.32387e-06
-1.99664e-07
-5.09001e-06
-1.01005e-05
2.0799e-07
1.61015e-06
3.75133e-07
2.57133e-06
6.33474e-07
2.85906e-06
1.18496e-06
3.19658e-06
1.89079e-06
3.60564e-06
2.50994e-06
3.67846e-06
2.98137e-06
3.38551e-06
3.26343e-06
2.71175e-06
3.38632e-06
1.80556e-06
3.35016e-06
7.84902e-07
3.13497e-06
-1.75396e-07
2.73629e-06
-9.68121e-07
2.22037e-06
-1.45706e-06
1.67398e-06
-1.6707e-06
1.16949e-06
-1.68475e-06
7.61925e-07
-1.62174e-06
4.0568e-07
-1.52245e-06
8.48778e-08
-2.00307e-06
-1.54105e-07
-4.85103e-06
-1.02547e-05
2.22473e-07
1.38768e-06
4.25948e-07
2.36786e-06
6.62506e-07
2.6225e-06
1.08635e-06
2.77274e-06
1.7139e-06
2.97808e-06
2.36715e-06
3.02521e-06
2.91967e-06
2.833e-06
3.28692e-06
2.3445e-06
3.43162e-06
1.66087e-06
3.39195e-06
8.2457e-07
3.16961e-06
4.69519e-08
2.75361e-06
-5.52126e-07
2.22447e-06
-9.27921e-07
1.6874e-06
-1.13363e-06
1.2003e-06
-1.19764e-06
7.93873e-07
-1.21532e-06
4.45216e-07
-1.17379e-06
8.35604e-08
-1.64141e-06
-1.86559e-07
-4.58091e-06
-1.04412e-05
1.89507e-07
1.19817e-06
4.01925e-07
2.15544e-06
6.25349e-07
2.39908e-06
9.47862e-07
2.45023e-06
1.42741e-06
2.49853e-06
1.985e-06
2.46763e-06
2.50759e-06
2.3104e-06
2.90647e-06
1.94561e-06
3.10371e-06
1.46363e-06
3.07726e-06
8.51022e-07
2.85038e-06
2.73829e-07
2.48431e-06
-1.86054e-07
2.04169e-06
-4.85301e-07
1.59295e-06
-6.84885e-07
1.17487e-06
-7.79565e-07
7.94426e-07
-8.34875e-07
4.72504e-07
-8.51868e-07
8.43225e-08
-1.25323e-06
-1.30772e-07
-4.36581e-06
-1.0572e-05
1.34069e-07
1.0641e-06
3.35321e-07
1.95418e-06
5.68522e-07
2.16588e-06
8.47221e-07
2.17153e-06
1.2144e-06
2.13136e-06
1.64006e-06
2.04196e-06
2.06056e-06
1.8899e-06
2.38991e-06
1.61627e-06
2.57595e-06
1.27759e-06
2.58937e-06
8.37602e-07
2.43498e-06
4.28219e-07
2.16183e-06
8.70978e-08
1.83559e-06
-1.59062e-07
1.475e-06
-3.24297e-07
1.11261e-06
-4.17171e-07
7.45122e-07
-4.6739e-07
4.63708e-07
-5.70453e-07
7.92455e-08
-8.6877e-07
-4.42358e-08
-4.24233e-06
-1.06162e-05
3.29517e-08
1.03115e-06
1.94064e-07
1.79307e-06
4.13513e-07
1.94643e-06
6.86351e-07
1.89869e-06
1.00751e-06
1.8102e-06
1.35308e-06
1.69638e-06
1.69429e-06
1.54869e-06
1.97348e-06
1.33709e-06
2.14882e-06
1.10225e-06
2.18994e-06
7.96475e-07
2.10239e-06
5.15774e-07
1.91555e-06
2.73931e-07
1.66643e-06
9.00594e-08
1.37187e-06
-2.97365e-08
1.05472e-06
-1.00018e-07
7.27094e-07
-1.39764e-07
4.7832e-07
-3.21679e-07
1.69608e-07
-5.60058e-07
1.44678e-07
-4.2174e-06
-1.04715e-05
-9.04527e-08
1.1216e-06
6.77215e-08
1.6349e-06
3.18196e-07
1.69596e-06
5.94503e-07
1.62238e-06
8.92876e-07
1.51183e-06
1.18983e-06
1.39943e-06
1.47146e-06
1.26706e-06
1.69961e-06
1.10894e-06
1.8566e-06
9.45252e-07
1.90768e-06
7.45396e-07
1.85701e-06
5.6645e-07
1.72087e-06
4.10064e-07
1.52987e-06
2.81066e-07
1.29751e-06
2.0262e-07
1.06623e-06
1.31258e-07
8.09024e-07
1.17447e-07
5.14262e-07
-2.69173e-08
3.44074e-07
-3.89869e-07
4.32456e-07
-4.30579e-06
-1.00391e-05
-3.76458e-07
1.49806e-06
-2.65712e-07
1.52415e-06
1.44533e-08
1.41579e-06
3.31164e-07
1.30567e-06
6.51101e-07
1.19189e-06
9.55e-07
1.09553e-06
1.24041e-06
9.81653e-07
1.47207e-06
8.77278e-07
1.64457e-06
7.72749e-07
1.72631e-06
6.63655e-07
1.73144e-06
5.61324e-07
1.66244e-06
4.79068e-07
1.5374e-06
4.06104e-07
1.35418e-06
3.85838e-07
1.13469e-06
3.50745e-07
8.84769e-07
3.67373e-07
6.94211e-07
1.63641e-07
8.76338e-07
-5.71996e-07
9.74534e-07
-4.40398e-06
-9.06455e-06
-6.6825e-07
2.16631e-06
-3.88224e-07
1.24413e-06
5.05858e-08
9.76981e-07
4.57378e-07
8.98881e-07
8.42952e-07
8.06316e-07
1.18477e-06
7.53712e-07
1.50662e-06
6.5981e-07
1.75779e-06
6.26102e-07
1.98243e-06
5.48108e-07
2.11875e-06
5.27334e-07
2.22489e-06
4.55187e-07
2.24613e-06
4.57824e-07
2.25519e-06
3.97044e-07
2.20834e-06
4.32693e-07
2.1979e-06
3.61184e-07
2.23781e-06
3.27463e-07
2.36608e-06
3.53743e-08
2.73114e-06
-9.37056e-07
2.16736e-06
-3.84021e-06
-6.89719e-06
2.16631e-06
3.41044e-06
4.38742e-06
5.2863e-06
6.09262e-06
6.84633e-06
7.50614e-06
8.13224e-06
8.68035e-06
9.20768e-06
9.66287e-06
1.01207e-05
1.05177e-05
1.09504e-05
1.13116e-05
1.16391e-05
1.16745e-05
1.07374e-05
6.89719e-06
)
;

boundaryField
{
    movingWall
    {
        type            calculated;
        value           uniform 0;
    }
    fixedWalls
    {
        type            calculated;
        value           uniform 0;
    }
    frontAndBack
    {
        type            empty;
        value           nonuniform 0();
    }
}


// ************************************************************************* //
