/*--------------------------------*- C++ -*----------------------------------*\
| =========                 |                                                 |
| \\      /  F ield         | OpenFOAM: The Open Source CFD Toolbox           |
|  \\    /   O peration     | Version:  5.0                                   |
|   \\  /    A nd           | Web:      www.OpenFOAM.org                      |
|    \\/     M anipulation  |                                                 |
\*---------------------------------------------------------------------------*/
FoamFile
{
    version     2.0;
    format      ascii;
    class       volVectorField;
    location    "3";
    object      U;
}
// * * * * * * * * * * * * * * * * * * * * * * * * * * * * * * * * * * * * * //

dimensions      [0 1 -1 0 0 0 0];

internalField   nonuniform List<vector> 
400
(
(6.32725e-05 -0.000239959 0)
(-5.37062e-05 -0.000207486 0)
(-0.000497485 5.88006e-05 0)
(-0.00241369 0.000291859 0)
(-0.00911405 0.00050145 0)
(-0.0210757 0.00537177 0)
(-0.0572562 0.0183134 0)
(-0.0929972 0.0151896 0)
(-0.110038 0.00963258 0)
(-0.124706 0.00955212 0)
(-0.131308 0.00466578 0)
(-0.135429 0.00427149 0)
(-0.13677 0.00195169 0)
(-0.136529 0.000724551 0)
(-0.132447 -0.00111505 0)
(-0.123807 -0.00448075 0)
(-0.109243 -0.0088321 0)
(-0.0832623 -0.0163862 0)
(-0.0501983 -0.0186652 0)
(-0.0159159 -0.00670837 0)
(-0.000401244 0.000250617 0)
(-0.00259346 0.000755658 0)
(-0.0061992 0.00248161 0)
(-0.0147087 0.00833316 0)
(-0.0361104 0.0237554 0)
(-0.0712486 0.0433562 0)
(-0.0963617 0.0416213 0)
(-0.113438 0.0319761 0)
(-0.124283 0.0231115 0)
(-0.133289 0.0134898 0)
(-0.135111 0.00652259 0)
(-0.135648 0.000333735 0)
(-0.131884 -0.00443914 0)
(-0.130247 -0.00737444 0)
(-0.124928 -0.012003 0)
(-0.117569 -0.0185244 0)
(-0.106812 -0.0297327 0)
(-0.0847449 -0.0488212 0)
(-0.0574586 -0.0660961 0)
(-0.0237591 -0.0543777 0)
(-0.00131088 0.00298821 0)
(-0.0067458 0.00568625 0)
(-0.0152569 0.0133538 0)
(-0.0330657 0.0315106 0)
(-0.0618195 0.0539901 0)
(-0.0843996 0.062917 0)
(-0.0987486 0.0550884 0)
(-0.107396 0.0411553 0)
(-0.112089 0.0316939 0)
(-0.111052 0.0194553 0)
(-0.106559 0.00916715 0)
(-0.101064 0.00168565 0)
(-0.0928668 -0.00578834 0)
(-0.0878039 -0.0086456 0)
(-0.0827111 -0.013616 0)
(-0.0784322 -0.0201214 0)
(-0.0752083 -0.0339775 0)
(-0.0637043 -0.0620691 0)
(-0.0449823 -0.0918946 0)
(-0.0231735 -0.0977955 0)
(-0.00224128 0.00867748 0)
(-0.0105323 0.0152295 0)
(-0.0218819 0.0297431 0)
(-0.0423303 0.0548947 0)
(-0.0653122 0.0739241 0)
(-0.0788842 0.075756 0)
(-0.0872636 0.0628628 0)
(-0.0904551 0.0473451 0)
(-0.0966814 0.0331992 0)
(-0.0958026 0.0159048 0)
(-0.092016 0.00234151 0)
(-0.0856725 -0.00856031 0)
(-0.074627 -0.0165542 0)
(-0.0646664 -0.0187284 0)
(-0.0540743 -0.0212207 0)
(-0.0473413 -0.0236432 0)
(-0.0462667 -0.0336898 0)
(-0.0415131 -0.0642327 0)
(-0.036988 -0.108718 0)
(-0.0109825 -0.125334 0)
(-0.00280163 0.016072 0)
(-0.0125105 0.0263022 0)
(-0.0238694 0.0454242 0)
(-0.0425985 0.0733301 0)
(-0.0574408 0.0867058 0)
(-0.067748 0.0844925 0)
(-0.0739013 0.0684903 0)
(-0.0788224 0.0517898 0)
(-0.0874157 0.0360932 0)
(-0.0877364 0.0158664 0)
(-0.0845321 -0.00226988 0)
(-0.0786904 -0.0184232 0)
(-0.0675406 -0.0301209 0)
(-0.0562682 -0.0341435 0)
(-0.0432632 -0.0353178 0)
(-0.0328669 -0.0344787 0)
(-0.0281312 -0.0366875 0)
(-0.0220629 -0.0593913 0)
(-0.0275343 -0.115731 0)
(-0.0085457 -0.148701 0)
(-0.00279473 0.023993 0)
(-0.0123076 0.0370855 0)
(-0.0219472 0.058702 0)
(-0.0368818 0.086473 0)
(-0.0462418 0.0956528 0)
(-0.0544556 0.0913982 0)
(-0.0588877 0.0738664 0)
(-0.0643779 0.056802 0)
(-0.071855 0.0399919 0)
(-0.071107 0.0168892 0)
(-0.0683415 -0.00544602 0)
(-0.0632695 -0.0261254 0)
(-0.0541902 -0.0408159 0)
(-0.0443521 -0.0465371 0)
(-0.033831 -0.0472009 0)
(-0.0238 -0.0454614 0)
(-0.0202336 -0.0447104 0)
(-0.0110442 -0.0627881 0)
(-0.0206922 -0.115977 0)
(-0.00200726 -0.162912 0)
(-0.00203838 0.0313012 0)
(-0.0102651 0.0462915 0)
(-0.0166909 0.0687855 0)
(-0.0266298 0.0949314 0)
(-0.0305289 0.101851 0)
(-0.0367366 0.09703 0)
(-0.0400423 0.0805289 0)
(-0.042961 0.0627292 0)
(-0.0483813 0.0428667 0)
(-0.0476345 0.017376 0)
(-0.0452383 -0.00807864 0)
(-0.0412886 -0.0319522 0)
(-0.0353342 -0.0489293 0)
(-0.0276533 -0.0554845 0)
(-0.0215036 -0.0556346 0)
(-0.0126018 -0.0518903 0)
(-0.0129091 -0.0479959 0)
(-0.00330287 -0.0613817 0)
(-0.0169928 -0.117202 0)
(-0.00102389 -0.175414 0)
(-0.00099404 0.036749 0)
(-0.00728001 0.0529483 0)
(-0.00911295 0.073934 0)
(-0.0140912 0.0986699 0)
(-0.0141423 0.10518 0)
(-0.0159391 0.101623 0)
(-0.0184689 0.0847476 0)
(-0.0187685 0.0657082 0)
(-0.0211608 0.0445625 0)
(-0.0200724 0.0182656 0)
(-0.0186574 -0.00850904 0)
(-0.0149559 -0.0338476 0)
(-0.0126875 -0.0526824 0)
(-0.00877933 -0.0601499 0)
(-0.00886113 -0.0602227 0)
(-0.00207925 -0.0556238 0)
(-0.00770554 -0.050223 0)
(0.00217355 -0.0614763 0)
(-0.0139845 -0.113493 0)
(0.00284899 -0.182925 0)
(0.000361925 0.0403074 0)
(-0.00337135 0.0564125 0)
(-0.00259662 0.0742011 0)
(-0.000265197 0.0979932 0)
(0.00152166 0.105037 0)
(0.00369554 0.101869 0)
(0.00361444 0.0868129 0)
(0.00443576 0.0661706 0)
(0.00474265 0.0445179 0)
(0.00685402 0.0179471 0)
(0.00781054 -0.0101831 0)
(0.0113458 -0.0355192 0)
(0.00980506 -0.0530584 0)
(0.00920372 -0.06022 0)
(0.004894 -0.0594548 0)
(0.00694905 -0.0546507 0)
(-0.00266557 -0.0493459 0)
(0.00668688 -0.0576265 0)
(-0.0124171 -0.112145 0)
(0.00333262 -0.190242 0)
(0.00175636 0.0401997 0)
(0.00074379 0.0574129 0)
(0.00250664 0.070992 0)
(0.0110776 0.0927447 0)
(0.0172146 0.102649 0)
(0.0227513 0.0992365 0)
(0.0254751 0.0868605 0)
(0.0283107 0.0664667 0)
(0.0299196 0.0431713 0)
(0.0331386 0.0171258 0)
(0.0337031 -0.0102678 0)
(0.0351923 -0.0339981 0)
(0.0296249 -0.0494462 0)
(0.0249977 -0.0561106 0)
(0.0150778 -0.0558275 0)
(0.0142232 -0.0506626 0)
(0.000431744 -0.0463755 0)
(0.0100629 -0.0545703 0)
(-0.0123845 -0.106772 0)
(0.00655141 -0.194749 0)
(0.00231224 0.0385184 0)
(0.00395673 0.0563984 0)
(0.00658009 0.0655146 0)
(0.0165308 0.0817574 0)
(0.0281228 0.0947097 0)
(0.0381687 0.0937943 0)
(0.044606 0.0838192 0)
(0.0498636 0.0649653 0)
(0.0525683 0.042394 0)
(0.0553823 0.0169079 0)
(0.0554872 -0.00812969 0)
(0.0531242 -0.0293026 0)
(0.0443251 -0.0430417 0)
(0.0362366 -0.0482633 0)
(0.0235289 -0.0474736 0)
(0.0197685 -0.0441432 0)
(0.00315335 -0.0407786 0)
(0.0128311 -0.0491007 0)
(-0.0127036 -0.104142 0)
(0.0074685 -0.199963 0)
(0.00255201 0.0347841 0)
(0.00595549 0.0538414 0)
(0.00927261 0.0601389 0)
(0.0172584 0.0694369 0)
(0.0306725 0.0799526 0)
(0.0439788 0.0815426 0)
(0.0541938 0.0747149 0)
(0.0622831 0.0594742 0)
(0.0660668 0.0389968 0)
(0.0683131 0.0158474 0)
(0.0656367 -0.00581205 0)
(0.0613838 -0.0229164 0)
(0.0506116 -0.0334368 0)
(0.040816 -0.0383302 0)
(0.0264617 -0.0386374 0)
(0.0223117 -0.0361127 0)
(0.00458512 -0.033518 0)
(0.0154849 -0.0428271 0)
(-0.01429 -0.0979208 0)
(0.0108025 -0.203427 0)
(0.002326 0.0300073 0)
(0.00670155 0.0495431 0)
(0.0105626 0.0548737 0)
(0.0165741 0.0592185 0)
(0.0275835 0.064908 0)
(0.0408314 0.0663181 0)
(0.0524896 0.0617157 0)
(0.0624444 0.0503669 0)
(0.0671606 0.0344717 0)
(0.0689735 0.0162824 0)
(0.0666889 -0.000832017 0)
(0.0614993 -0.0146938 0)
(0.0501578 -0.0237139 0)
(0.0406943 -0.0280078 0)
(0.02695 -0.0285095 0)
(0.023243 -0.0282848 0)
(0.00463756 -0.0270875 0)
(0.0176436 -0.0365297 0)
(-0.0167484 -0.0954433 0)
(0.0126264 -0.207615 0)
(0.00156139 0.0257978 0)
(0.00623081 0.0456413 0)
(0.010171 0.0504983 0)
(0.0151786 0.0520046 0)
(0.0231663 0.053731 0)
(0.034144 0.0533759 0)
(0.044443 0.0497638 0)
(0.0544522 0.0413757 0)
(0.0603281 0.0305235 0)
(0.0629584 0.0162472 0)
(0.0598833 0.00285911 0)
(0.0548202 -0.00747605 0)
(0.0451772 -0.0139807 0)
(0.0379108 -0.0178645 0)
(0.025857 -0.0196436 0)
(0.0234164 -0.020446 0)
(0.00424122 -0.0202568 0)
(0.0197047 -0.0285101 0)
(-0.0190882 -0.0890235 0)
(0.0171086 -0.210155 0)
(0.000826635 0.0223424 0)
(0.00479117 0.0405099 0)
(0.0090644 0.0454156 0)
(0.0139452 0.0459801 0)
(0.0200793 0.0457738 0)
(0.0286498 0.0441787 0)
(0.036329 0.0409411 0)
(0.04508 0.0346339 0)
(0.0496999 0.0265393 0)
(0.0523593 0.0163733 0)
(0.0506402 0.00706873 0)
(0.0471314 -0.000553538 0)
(0.0397737 -0.00612142 0)
(0.0346815 -0.010019 0)
(0.0241716 -0.0117964 0)
(0.022601 -0.0130482 0)
(0.00311049 -0.0140929 0)
(0.0206744 -0.0208307 0)
(-0.0204272 -0.0864998 0)
(0.0212898 -0.213228 0)
(-0.000811275 0.020598 0)
(0.00233287 0.0380846 0)
(0.00584356 0.0415032 0)
(0.0108801 0.040923 0)
(0.016523 0.0392831 0)
(0.0237412 0.0369271 0)
(0.0298594 0.0336535 0)
(0.0371574 0.0286723 0)
(0.0411466 0.0230049 0)
(0.0439449 0.0158093 0)
(0.0431865 0.00919452 0)
(0.0410081 0.00363264 0)
(0.0357776 -0.000517383 0)
(0.0317245 -0.00316871 0)
(0.0227795 -0.00475436 0)
(0.0215511 -0.00509429 0)
(0.00367583 -0.00794831 0)
(0.020635 -0.0134863 0)
(-0.0183063 -0.084138 0)
(0.0283907 -0.214897 0)
(-0.00228692 0.0212754 0)
(-0.000859743 0.0331957 0)
(0.00384217 0.0361144 0)
(0.00901199 0.0350871 0)
(0.0145592 0.0332216 0)
(0.0209198 0.0309376 0)
(0.0261948 0.0281459 0)
(0.0320404 0.0244812 0)
(0.0354147 0.020541 0)
(0.038099 0.0154228 0)
(0.0378093 0.0108248 0)
(0.0364576 0.00682664 0)
(0.0325072 0.00376231 0)
(0.0293324 0.00182431 0)
(0.0224851 0.000370323 0)
(0.0219213 -0.00113229 0)
(0.00675459 -0.00608775 0)
(0.0186875 -0.0101219 0)
(-0.0112878 -0.0885533 0)
(0.0366325 -0.21849 0)
(-0.00567351 0.0250702 0)
(-0.00794246 0.0336735 0)
(-0.00280642 0.0330237 0)
(0.00340962 0.0306515 0)
(0.0096241 0.0278873 0)
(0.0160968 0.0254831 0)
(0.0217163 0.0226789 0)
(0.0273666 0.0197998 0)
(0.0311888 0.0170489 0)
(0.0340534 0.0142141 0)
(0.0347428 0.0115681 0)
(0.0343557 0.00940706 0)
(0.0321737 0.00758839 0)
(0.0297013 0.00669081 0)
(0.0243243 0.00540096 0)
(0.0221795 0.00660918 0)
(0.0105729 0.0055693 0)
(0.0211105 -0.00492806 0)
(0.00366399 -0.0964304 0)
(0.049546 -0.215348 0)
(-0.0103101 0.0383015 0)
(-0.0137575 0.0235055 0)
(-0.00264147 0.0200774 0)
(0.00483265 0.019214 0)
(0.0129968 0.0179245 0)
(0.0202273 0.0165524 0)
(0.0269651 0.0149374 0)
(0.0326614 0.01369 0)
(0.0375099 0.0124261 0)
(0.0411576 0.0110161 0)
(0.0437357 0.00984181 0)
(0.0448899 0.00885724 0)
(0.0453331 0.00804214 0)
(0.044916 0.00803951 0)
(0.0440317 0.00766109 0)
(0.0447494 0.00610236 0)
(0.0399129 -0.0016072 0)
(0.0482545 -0.0246278 0)
(0.0432085 -0.102468 0)
(0.0727736 -0.176377 0)
(0.0457331 0.041064 0)
(0.0520127 0.0306187 0)
(0.0765154 0.0230765 0)
(0.0955725 0.0196808 0)
(0.116308 0.0166573 0)
(0.128284 0.015786 0)
(0.145027 0.0134211 0)
(0.155013 0.0132209 0)
(0.169246 0.0110624 0)
(0.17779 0.0114647 0)
(0.189786 0.00937613 0)
(0.197255 0.0103013 0)
(0.206783 0.00820986 0)
(0.213708 0.00959701 0)
(0.220167 0.00745768 0)
(0.226643 0.00901122 0)
(0.229581 0.00447852 0)
(0.222803 -0.00171367 0)
(0.193735 -0.0129059 0)
(0.144387 -0.0312131 0)
)
;

boundaryField
{
    movingWall
    {
        type            fixedValue;
        value           uniform (1 0 0);
    }
    fixedWalls
    {
        type            noSlip;
    }
    frontAndBack
    {
        type            empty;
    }
}


// ************************************************************************* //
