/*--------------------------------*- C++ -*----------------------------------*\
| =========                 |                                                 |
| \\      /  F ield         | OpenFOAM: The Open Source CFD Toolbox           |
|  \\    /   O peration     | Version:  5.0                                   |
|   \\  /    A nd           | Web:      www.OpenFOAM.org                      |
|    \\/     M anipulation  |                                                 |
\*---------------------------------------------------------------------------*/
FoamFile
{
    version     2.0;
    format      ascii;
    class       volScalarField;
    location    "3";
    object      yPlus;
}
// * * * * * * * * * * * * * * * * * * * * * * * * * * * * * * * * * * * * * //

dimensions      [0 0 0 0 0 0 0];

internalField   uniform 0;

boundaryField
{
    movingWall
    {
        type            calculated;
        value           nonuniform List<scalar> 
20
(
15.4528
15.3987
15.1968
15.0386
14.8648
14.7636
14.6209
14.5352
14.412
14.3378
14.2326
14.167
14.0824
14.021
13.9631
13.9051
13.8783
13.9391
14.1983
14.6303
)
;
    }
    fixedWalls
    {
        type            calculated;
        value           nonuniform List<scalar> 
60
(
0.249079
0.343904
0.903202
1.49685
2.01955
2.4574
2.80033
3.0316
3.17447
3.17167
3.10595
2.95286
2.74305
2.5419
2.3642
2.27013
2.3129
2.53496
3.149
3.91993
2.07797
3.85168
5.01257
5.60835
6.10218
6.38209
6.62225
6.7629
6.89694
6.9796
7.07288
7.13641
7.21108
7.26034
7.31929
7.36146
7.4421
7.4326
6.90653
6.07705
0.249079
0.231476
0.353888
0.779627
1.51062
2.33182
3.87665
4.85359
5.25497
5.59176
5.73129
5.82014
5.84773
5.84232
5.75438
5.56525
5.23449
4.60596
3.6591
2.07797
)
;
    }
    frontAndBack
    {
        type            empty;
    }
}


// ************************************************************************* //
