/*--------------------------------*- C++ -*----------------------------------*\
| =========                 |                                                 |
| \\      /  F ield         | OpenFOAM: The Open Source CFD Toolbox           |
|  \\    /   O peration     | Version:  5.0                                   |
|   \\  /    A nd           | Web:      www.OpenFOAM.org                      |
|    \\/     M anipulation  |                                                 |
\*---------------------------------------------------------------------------*/
FoamFile
{
    version     2.0;
    format      ascii;
    class       volScalarField;
    location    "9.5";
    object      k;
}
// * * * * * * * * * * * * * * * * * * * * * * * * * * * * * * * * * * * * * //

dimensions      [0 2 -2 0 0 0 0];

internalField   nonuniform List<scalar> 
400
(
3.86283e-10
1.46203e-09
9.79219e-09
5.47437e-08
1.47794e-07
2.56203e-07
3.58979e-07
4.55085e-07
5.42301e-07
6.30603e-07
7.20068e-07
8.32014e-07
9.55211e-07
1.00656e-06
1.01015e-06
8.66343e-07
6.23711e-07
3.23774e-07
1.75326e-07
7.77836e-08
4.30232e-09
4.00864e-08
1.30571e-07
3.98468e-07
1.03984e-06
2.2761e-06
4.06586e-06
6.27826e-06
8.35024e-06
1.03596e-05
1.16411e-05
1.23564e-05
1.25545e-05
1.18223e-05
1.02919e-05
8.11122e-06
5.30393e-06
2.30801e-06
9.44849e-07
3.23917e-07
3.36681e-08
2.2389e-07
6.67367e-07
1.98023e-06
5.43265e-06
1.20626e-05
2.23473e-05
3.49276e-05
4.78555e-05
5.48007e-05
5.82956e-05
5.94029e-05
5.64678e-05
5.10166e-05
4.30046e-05
3.27667e-05
2.19588e-05
8.78889e-06
2.91364e-06
6.89888e-07
9.8099e-08
6.71135e-07
2.13831e-06
6.73235e-06
1.90524e-05
4.42933e-05
7.33137e-05
9.05028e-05
0.000100003
0.000104175
0.000105473
0.000104496
0.00010086
9.68949e-05
9.08964e-05
8.07216e-05
6.01577e-05
2.60342e-05
7.3182e-06
1.07644e-06
2.40411e-07
1.68269e-06
5.70406e-06
1.85437e-05
4.74386e-05
8.10612e-05
9.86357e-05
0.000107125
0.00011092
0.000111892
0.000111925
0.000109591
0.000108645
0.000107765
0.000106934
0.000103702
9.5744e-05
5.59031e-05
1.44826e-05
1.46109e-06
4.02151e-07
3.18228e-06
1.10644e-05
3.29354e-05
7.03916e-05
9.38233e-05
0.000103799
0.000107812
0.000109211
0.000108384
0.000106377
0.000105644
0.000105926
0.000108895
0.000111104
0.000112188
0.00011174
8.27947e-05
2.42363e-05
1.82771e-06
5.90908e-07
4.93472e-06
1.69206e-05
4.58708e-05
8.19519e-05
9.75807e-05
0.000103157
0.000104674
0.000101475
9.44371e-05
9.0879e-05
8.99046e-05
9.37165e-05
0.00010225
0.000111393
0.000115249
0.000117936
9.76346e-05
3.48642e-05
2.15693e-06
6.35054e-07
6.12758e-06
2.04515e-05
5.30059e-05
8.67608e-05
9.75866e-05
0.000100305
9.63404e-05
8.57512e-05
7.73703e-05
7.26874e-05
7.11791e-05
7.53478e-05
8.67059e-05
0.000106112
0.00011606
0.000119908
0.00010804
4.60921e-05
2.45269e-06
6.02331e-07
6.63154e-06
2.25876e-05
5.9446e-05
8.93394e-05
9.64656e-05
9.59651e-05
8.68428e-05
7.34994e-05
6.49103e-05
6.02771e-05
5.87434e-05
6.30702e-05
7.4252e-05
9.42533e-05
0.000115478
0.000118725
0.000112984
5.38749e-05
2.69848e-06
4.97552e-07
6.4525e-06
2.22498e-05
5.93606e-05
9.03801e-05
9.60583e-05
9.22251e-05
7.98182e-05
6.6003e-05
5.73829e-05
5.31499e-05
5.24408e-05
5.67453e-05
6.82095e-05
8.42633e-05
0.000114206
0.00011419
0.000115664
6.14745e-05
2.95451e-06
3.99111e-07
5.92559e-06
2.08884e-05
5.75136e-05
8.96138e-05
9.50298e-05
9.04625e-05
7.81104e-05
6.41912e-05
5.48866e-05
5.02247e-05
5.05329e-05
5.44041e-05
6.55143e-05
7.97452e-05
0.000112311
0.000110534
0.000116485
6.52066e-05
3.17505e-06
3.20345e-07
4.86817e-06
1.78826e-05
5.21806e-05
8.67952e-05
9.36876e-05
9.048e-05
7.96339e-05
6.59845e-05
5.65269e-05
5.14609e-05
5.15396e-05
5.44573e-05
6.4805e-05
7.85862e-05
0.000108303
0.000106203
0.000116631
6.70258e-05
3.45052e-06
2.48492e-07
3.56772e-06
1.39502e-05
4.41331e-05
8.02275e-05
9.0543e-05
8.95807e-05
8.38575e-05
7.11619e-05
6.16941e-05
5.64338e-05
5.6884e-05
6.00514e-05
6.95302e-05
8.20899e-05
0.000106518
0.000104106
0.000114891
6.72908e-05
3.75412e-06
1.78486e-07
2.29965e-06
9.60911e-06
3.00509e-05
7.02623e-05
8.53329e-05
8.70651e-05
8.50858e-05
8.01653e-05
7.30602e-05
6.76647e-05
6.82146e-05
7.12737e-05
8.04131e-05
9.05718e-05
0.000103898
0.000100648
0.000111259
6.26617e-05
3.98387e-06
1.10481e-07
1.27675e-06
5.83811e-06
1.83674e-05
5.03619e-05
7.45659e-05
8.14425e-05
8.28164e-05
8.20916e-05
8.17717e-05
8.12834e-05
8.23456e-05
8.49938e-05
9.07126e-05
9.46174e-05
0.000101785
9.87873e-05
0.000105107
5.61826e-05
4.05565e-06
5.18042e-08
6.17368e-07
3.0604e-06
9.90376e-06
2.82704e-05
5.27051e-05
6.84319e-05
7.50457e-05
7.81146e-05
8.10834e-05
8.32822e-05
8.79141e-05
9.04609e-05
9.35196e-05
9.5751e-05
9.58594e-05
9.17494e-05
9.32218e-05
4.67175e-05
3.91461e-06
1.73e-08
2.89876e-07
1.46255e-06
4.68803e-06
1.23443e-05
2.81492e-05
4.21439e-05
5.3385e-05
6.14332e-05
6.82773e-05
7.3233e-05
7.80896e-05
8.26071e-05
8.55194e-05
8.47108e-05
8.08628e-05
7.71802e-05
7.57319e-05
3.3933e-05
3.36169e-06
1.07641e-08
1.52114e-07
6.75215e-07
2.04311e-06
4.93347e-06
1.13484e-05
1.91969e-05
2.61321e-05
3.1778e-05
3.54415e-05
3.98461e-05
4.19057e-05
4.39555e-05
4.4867e-05
4.6427e-05
5.00623e-05
5.92672e-05
5.51185e-05
2.29224e-05
2.80661e-06
3.13045e-08
1.70456e-07
5.26801e-07
1.18059e-06
2.5773e-06
4.22214e-06
7.60824e-06
9.95226e-06
1.32187e-05
1.56974e-05
1.85704e-05
2.18864e-05
2.53345e-05
3.08944e-05
3.6146e-05
4.6136e-05
5.47403e-05
4.32566e-05
1.22778e-05
1.74581e-06
1.22454e-08
2.89473e-08
8.10756e-08
1.4821e-07
3.22454e-07
4.67378e-07
8.17447e-07
9.85723e-07
1.31166e-06
1.44721e-06
1.66093e-06
1.73096e-06
1.87202e-06
1.90287e-06
1.98558e-06
1.93953e-06
1.95366e-06
1.9134e-06
1.69539e-06
1.07929e-06
)
;

boundaryField
{
    movingWall
    {
        type            kqRWallFunction;
        value           nonuniform List<scalar> 
20
(
1.22454e-08
2.89473e-08
8.10756e-08
1.4821e-07
3.22454e-07
4.67378e-07
8.17447e-07
9.85723e-07
1.31166e-06
1.44721e-06
1.66093e-06
1.73096e-06
1.87202e-06
1.90287e-06
1.98558e-06
1.93953e-06
1.95366e-06
1.9134e-06
1.69539e-06
1.07929e-06
)
;
    }
    fixedWalls
    {
        type            kqRWallFunction;
        value           nonuniform List<scalar> 
60
(
3.86283e-10
4.30232e-09
3.36681e-08
9.8099e-08
2.40411e-07
4.02151e-07
5.90908e-07
6.35054e-07
6.02331e-07
4.97552e-07
3.99111e-07
3.20345e-07
2.48492e-07
1.78486e-07
1.10481e-07
5.18042e-08
1.73e-08
1.07641e-08
3.13045e-08
1.22454e-08
7.77836e-08
3.23917e-07
6.89888e-07
1.07644e-06
1.46109e-06
1.82771e-06
2.15693e-06
2.45269e-06
2.69848e-06
2.95451e-06
3.17505e-06
3.45052e-06
3.75412e-06
3.98387e-06
4.05565e-06
3.91461e-06
3.36169e-06
2.80661e-06
1.74581e-06
1.07929e-06
3.86283e-10
1.46203e-09
9.79219e-09
5.47437e-08
1.47794e-07
2.56203e-07
3.58979e-07
4.55085e-07
5.42301e-07
6.30603e-07
7.20068e-07
8.32014e-07
9.55211e-07
1.00656e-06
1.01015e-06
8.66343e-07
6.23711e-07
3.23774e-07
1.75326e-07
7.77836e-08
)
;
    }
    frontAndBack
    {
        type            empty;
    }
}


// ************************************************************************* //
