/*--------------------------------*- C++ -*----------------------------------*\
| =========                 |                                                 |
| \\      /  F ield         | OpenFOAM: The Open Source CFD Toolbox           |
|  \\    /   O peration     | Version:  5.0                                   |
|   \\  /    A nd           | Web:      www.OpenFOAM.org                      |
|    \\/     M anipulation  |                                                 |
\*---------------------------------------------------------------------------*/
FoamFile
{
    version     2.0;
    format      ascii;
    class       volScalarField;
    location    "9.5";
    object      nut;
}
// * * * * * * * * * * * * * * * * * * * * * * * * * * * * * * * * * * * * * //

dimensions      [0 2 -1 0 0 0 0];

internalField   nonuniform List<scalar> 
400
(
3.01784e-12
1.14221e-11
7.65015e-11
4.27685e-10
1.15464e-09
2.00159e-09
2.80453e-09
3.55535e-09
4.23673e-09
4.92658e-09
5.62553e-09
6.50011e-09
7.46259e-09
7.86372e-09
7.89183e-09
6.7683e-09
4.87274e-09
2.52949e-09
1.36973e-09
6.07685e-10
3.36119e-11
7.08917e-10
1.64413e-09
4.65203e-09
1.30546e-08
3.37491e-08
7.06732e-08
1.3275e-07
1.99814e-07
2.83301e-07
3.38559e-07
3.69048e-07
3.60845e-07
3.20308e-07
2.56154e-07
1.7957e-07
9.94959e-08
3.46353e-08
1.0257e-08
2.5306e-09
2.63032e-10
4.13898e-09
1.11705e-08
3.51159e-08
1.26794e-07
3.53808e-07
8.14006e-07
1.44799e-06
2.16667e-06
2.59461e-06
2.80937e-06
2.87052e-06
2.62269e-06
2.23165e-06
1.67985e-06
1.08177e-06
5.67844e-07
1.63389e-07
3.44887e-08
5.38975e-09
7.66399e-10
1.36682e-08
4.53805e-08
1.78643e-07
7.18021e-07
2.07323e-06
4.20965e-06
5.83166e-06
7.24391e-06
8.01613e-06
8.43396e-06
8.45365e-06
7.98376e-06
7.0728e-06
5.84482e-06
4.20883e-06
2.30253e-06
6.51442e-07
9.9931e-08
8.40971e-09
1.87821e-09
3.86365e-08
1.51717e-07
6.97678e-07
2.54476e-06
5.41084e-06
8.25076e-06
1.02134e-05
1.2153e-05
1.31821e-05
1.37223e-05
1.35916e-05
1.29386e-05
1.16306e-05
9.85079e-06
7.48561e-06
4.77452e-06
1.71447e-06
2.21534e-07
1.14147e-08
3.1418e-09
8.13914e-08
3.60347e-07
1.63601e-06
4.97303e-06
8.33842e-06
1.17863e-05
1.41427e-05
1.66547e-05
1.78758e-05
1.8284e-05
1.83601e-05
1.7499e-05
1.61474e-05
1.38146e-05
1.09124e-05
7.38142e-06
3.20015e-06
4.20935e-07
1.4279e-08
4.61647e-09
1.40649e-07
6.46213e-07
2.81474e-06
7.10105e-06
1.07715e-05
1.47948e-05
1.75717e-05
1.99668e-05
2.02219e-05
2.03153e-05
2.02855e-05
1.96555e-05
1.88044e-05
1.66837e-05
1.33546e-05
9.19107e-06
4.30285e-06
6.60827e-07
1.6851e-08
4.96136e-09
1.85201e-07
8.95297e-07
3.7413e-06
8.58715e-06
1.2632e-05
1.71478e-05
1.95461e-05
2.07215e-05
2.0677e-05
2.05096e-05
2.038e-05
2.00294e-05
1.98429e-05
1.91306e-05
1.56392e-05
1.10923e-05
5.51323e-06
9.58696e-07
1.91617e-08
4.70571e-09
2.17091e-07
1.07351e-06
4.55919e-06
9.61772e-06
1.38208e-05
1.8349e-05
2.00924e-05
2.05592e-05
2.02424e-05
1.98312e-05
1.95527e-05
1.93685e-05
1.94312e-05
1.92329e-05
1.688e-05
1.20415e-05
6.21718e-06
1.18616e-06
2.10819e-08
3.88712e-09
2.10897e-07
1.1345e-06
4.7206e-06
9.97374e-06
1.44666e-05
1.88608e-05
2.02547e-05
2.0239e-05
1.96764e-05
1.9174e-05
1.88667e-05
1.89455e-05
1.94613e-05
1.89502e-05
1.788e-05
1.26658e-05
6.85991e-06
1.44143e-06
2.30821e-08
3.11805e-09
1.83334e-07
1.07877e-06
4.53298e-06
9.76666e-06
1.41735e-05
1.83293e-05
1.98245e-05
1.97298e-05
1.9138e-05
1.86496e-05
1.85832e-05
1.87047e-05
1.93672e-05
1.86892e-05
1.81276e-05
1.27505e-05
7.13675e-06
1.59207e-06
2.48051e-08
2.50269e-09
1.32673e-07
9.04407e-07
3.99701e-06
9.12683e-06
1.34412e-05
1.75621e-05
1.9551e-05
1.9597e-05
1.91036e-05
1.85691e-05
1.84819e-05
1.85805e-05
1.92778e-05
1.85771e-05
1.77053e-05
1.24403e-05
7.24529e-06
1.69319e-06
2.69572e-08
1.94135e-09
8.06998e-08
6.60647e-07
3.19351e-06
7.84245e-06
1.19604e-05
1.57911e-05
1.88421e-05
1.93394e-05
1.91399e-05
1.8746e-05
1.87195e-05
1.87412e-05
1.90486e-05
1.81046e-05
1.69964e-05
1.2108e-05
7.14305e-06
1.7238e-06
2.9329e-08
1.39442e-09
4.19032e-08
3.91737e-07
1.97841e-06
6.25302e-06
1.00751e-05
1.35004e-05
1.66456e-05
1.87544e-05
1.93894e-05
1.92248e-05
1.91528e-05
1.89766e-05
1.89521e-05
1.7586e-05
1.54204e-05
1.10215e-05
6.65615e-06
1.58402e-06
3.1124e-08
8.63134e-10
1.96474e-08
1.97723e-07
1.03578e-06
3.91592e-06
7.46251e-06
1.02812e-05
1.28457e-05
1.49697e-05
1.67017e-05
1.77833e-05
1.78425e-05
1.7644e-05
1.70777e-05
1.53274e-05
1.34115e-05
9.82428e-06
5.91315e-06
1.37791e-06
3.16848e-08
4.04721e-10
8.12827e-09
7.96705e-08
4.55864e-07
1.86038e-06
4.49626e-06
7.17154e-06
9.26208e-06
1.09414e-05
1.22363e-05
1.32317e-05
1.38901e-05
1.39363e-05
1.35459e-05
1.25657e-05
1.07262e-05
7.90275e-06
4.75409e-06
1.07943e-06
3.05829e-08
1.35157e-10
3.89425e-09
3.14905e-08
1.57261e-07
6.10064e-07
1.86003e-06
3.45415e-06
5.13117e-06
6.69033e-06
7.95476e-06
8.89885e-06
9.43853e-06
9.78071e-06
9.63518e-06
8.82716e-06
7.29801e-06
5.43175e-06
3.28872e-06
7.00045e-07
2.62632e-08
8.40942e-11
2.36691e-09
1.44217e-08
5.68702e-08
1.75375e-07
5.05944e-07
1.04918e-06
1.6905e-06
2.35631e-06
2.87426e-06
3.43244e-06
3.72941e-06
3.89375e-06
3.84502e-06
3.67801e-06
3.36983e-06
3.07064e-06
1.83142e-06
3.84418e-07
2.19266e-08
2.44566e-10
3.57116e-09
1.15937e-08
2.95018e-08
7.40502e-08
1.37413e-07
2.78267e-07
3.9497e-07
5.58173e-07
6.87443e-07
8.10938e-07
9.36463e-07
1.03684e-06
1.15476e-06
1.23253e-06
1.31591e-06
1.30471e-06
7.56447e-07
1.35598e-07
1.36392e-08
9.56674e-11
2.26151e-10
6.33403e-10
1.15789e-09
2.51917e-09
3.65139e-09
6.3863e-09
7.70096e-09
1.02473e-08
1.13063e-08
1.2976e-08
1.35231e-08
1.46252e-08
1.48662e-08
1.55124e-08
1.51526e-08
1.5263e-08
1.49485e-08
1.32452e-08
8.43196e-09
)
;

boundaryField
{
    movingWall
    {
        type            nutkWallFunction;
        Cmu             0.09;
        kappa           0.41;
        E               9.8;
        value           uniform 0;
    }
    fixedWalls
    {
        type            nutkWallFunction;
        Cmu             0.09;
        kappa           0.41;
        E               9.8;
        value           uniform 0;
    }
    frontAndBack
    {
        type            empty;
    }
}


// ************************************************************************* //
