/*--------------------------------*- C++ -*----------------------------------*\
| =========                 |                                                 |
| \\      /  F ield         | OpenFOAM: The Open Source CFD Toolbox           |
|  \\    /   O peration     | Version:  5.0                                   |
|   \\  /    A nd           | Web:      www.OpenFOAM.org                      |
|    \\/     M anipulation  |                                                 |
\*---------------------------------------------------------------------------*/
FoamFile
{
    version     2.0;
    format      ascii;
    class       volScalarField;
    location    "9.5";
    object      omega;
}
// * * * * * * * * * * * * * * * * * * * * * * * * * * * * * * * * * * * * * //

dimensions      [0 0 -1 0 0 0 0];

internalField   nonuniform List<scalar> 
400
(
128
128
128
128
128
128
128
128
128
128
128
128
128
128
128
128
128
128
128
128
128
56.5461
79.4167
85.6546
79.6529
67.4419
57.5305
47.294
41.7901
36.5676
34.3841
33.4818
34.7918
36.9091
40.1785
45.1703
53.308
66.6375
92.118
128
128
54.0931
59.7439
56.3912
42.8463
34.0938
27.4535
24.1214
22.0872
21.121
20.7504
20.6941
21.5305
22.8605
25.6003
30.2901
38.6705
53.7912
84.4809
128
128
49.1021
47.1197
37.6861
26.5345
21.3644
17.4156
15.5192
13.8051
12.9956
12.5057
12.3611
12.6332
13.6996
15.5516
19.1791
26.1268
39.9641
73.2325
128
128
43.5518
37.5966
26.5792
18.6417
14.9813
11.9547
10.4887
9.12695
8.48822
8.15643
8.0631
8.39691
9.26558
10.8554
13.8535
20.0531
32.6066
65.374
128
128
39.0985
30.7047
20.1315
14.1547
11.2519
8.80672
7.62318
6.55735
6.06315
5.81803
5.75401
6.05324
6.74385
8.04246
10.2808
15.1381
25.8722
57.5774
128
128
35.0854
26.1842
16.2966
11.5408
9.05913
6.97253
5.957
5.08219
4.67004
4.47343
4.43196
4.76796
5.43754
6.67675
8.62993
12.8316
22.6907
52.7584
128
128
33.0861
22.8433
14.1678
10.1036
7.72534
5.84944
4.92888
4.13828
3.74184
3.54407
3.49259
3.76187
4.36962
5.54673
7.4211
10.8099
19.5966
48.0779
128
128
30.5473
21.041
13.0387
9.28904
6.97973
5.23
4.32218
3.575
3.20664
3.03951
3.00436
3.25632
3.82128
4.90063
6.84113
9.85963
18.1728
45.4196
128
128
30.5955
19.612
12.5748
9.06181
6.64001
4.88979
3.94073
3.26118
2.91633
2.77197
2.77954
2.99519
3.50488
4.44656
6.38736
9.01563
16.8608
42.6481
128
128
32.3213
19.3633
12.6878
9.17548
6.70476
4.93541
3.9401
3.25352
2.86794
2.69307
2.71927
2.90858
3.38275
4.26692
6.1956
8.66899
16.3219
40.9571
128
128
36.693
19.7728
13.0549
9.5099
6.97018
5.15201
4.07314
3.36707
2.95896
2.77132
2.78866
2.93089
3.36164
4.23027
6.11699
8.537
16.0975
39.5856
128
128
44.2098
21.1159
13.8196
10.2299
7.57023
5.67288
4.45054
3.67964
3.22333
3.01045
3.03876
3.20424
3.65015
4.53421
6.2671
8.59812
16.0843
39.0364
128
128
54.88
24.5295
15.1895
11.2365
8.46966
6.44906
5.11161
4.27448
3.76804
3.51965
3.56161
3.75587
4.24297
5.15023
6.73771
9.13193
16.7152
39.5585
128
128
64.983
29.5267
17.733
12.8608
9.99206
7.92152
6.44699
5.48386
4.89601
4.57078
4.61514
4.81714
5.31177
6.1731
7.58937
10.0554
17.7752
40.7738
128
128
75.9532
38.4132
21.7252
15.196
11.722
9.54215
8.10246
7.13933
6.62647
6.29412
6.32929
6.49102
6.90391
7.62002
8.93695
11.6098
19.6088
43.2799
128
128
74.4368
46.4442
29.8104
20.2344
15.1337
12.201
10.4041
9.18239
8.5832
8.22949
8.27349
8.44592
8.87574
9.59661
11.0801
14.2091
23.0278
48.4727
128
128
64.2671
46.8192
35.9258
28.131
22.4301
18.2971
15.4582
13.4863
12.3306
11.6087
11.2366
11.2887
11.6689
12.6228
14.8561
19.3013
30.0961
59.6288
128
128
47.7313
45.4387
40.0176
34.8048
30.7259
27.3415
25.1975
23.6822
22.8344
22.8999
23.3713
24.4343
26.7539
29.3267
35.06
41.9559
57.1839
90.5453
128
128
128
128
128
128
128
128
128
128
128
128
128
128
128
128
128
128
128
128
128
)
;

boundaryField
{
    movingWall
    {
        Cmu             0.09;
        kappa           0.41;
        E               9.8;
        beta1           0.075;
        blended         false;
        type            omegaWallFunction;
        value           nonuniform List<scalar> 
20
(
128
128
128
128
128
128
128
128
128
128
128
128
128
128
128
128
128
128
128
128
)
;
    }
    fixedWalls
    {
        Cmu             0.09;
        kappa           0.41;
        E               9.8;
        beta1           0.075;
        blended         false;
        type            omegaWallFunction;
        value           nonuniform List<scalar> 
60
(
128
128
128
128
128
128
128
128
128
128
128
128
128
128
128
128
128
128
128
128
128
128
128
128
128
128
128
128
128
128
128
128
128
128
128
128
128
128
128
128
128
128
128
128
128
128
128
128
128
128
128
128
128
128
128
128
128
128
128
128
)
;
    }
    frontAndBack
    {
        type            empty;
    }
}


// ************************************************************************* //
