/*--------------------------------*- C++ -*----------------------------------*\
| =========                 |                                                 |
| \\      /  F ield         | OpenFOAM: The Open Source CFD Toolbox           |
|  \\    /   O peration     | Version:  5.0                                   |
|   \\  /    A nd           | Web:      www.OpenFOAM.org                      |
|    \\/     M anipulation  |                                                 |
\*---------------------------------------------------------------------------*/
FoamFile
{
    version     2.0;
    format      ascii;
    class       volScalarField;
    location    "9.5";
    object      p;
}
// * * * * * * * * * * * * * * * * * * * * * * * * * * * * * * * * * * * * * //

dimensions      [0 2 -2 0 0 0 0];

internalField   nonuniform List<scalar> 
400
(
6.61857e-08
-0.000114193
-0.000283457
-0.000172598
-0.000947066
-0.00282741
-0.00513634
-0.00726179
-0.00897935
-0.0101518
-0.0107303
-0.0106378
-0.00982635
-0.00817349
-0.00559723
-0.00207988
0.00223453
0.00671555
0.00990042
0.0111605
1.67553e-05
-6.8033e-05
-0.000266551
-0.000923126
-0.00227254
-0.00425718
-0.00634476
-0.00834289
-0.00992987
-0.0110165
-0.0115412
-0.0114794
-0.0107763
-0.00934856
-0.00711871
-0.00405442
-0.000190112
0.00410523
0.00776088
0.00983089
0.00036427
-6.75734e-05
-0.000917652
-0.00234708
-0.00431048
-0.00642211
-0.00848354
-0.0103378
-0.011692
-0.0125587
-0.0129156
-0.0127601
-0.0120685
-0.0108396
-0.00903113
-0.00660863
-0.00352457
0.000175718
0.00385492
0.00634496
0.000237793
-0.000562111
-0.00212906
-0.00429902
-0.0066533
-0.00883801
-0.0106915
-0.0121039
-0.0131161
-0.0137359
-0.0139504
-0.0137669
-0.013171
-0.0121524
-0.0107045
-0.00882434
-0.00647053
-0.00355225
-0.000380117
0.00200563
-0.00069444
-0.00178529
-0.00390012
-0.00644304
-0.00882701
-0.0108078
-0.0123525
-0.0134876
-0.0142877
-0.0147627
-0.0149173
-0.0147403
-0.0142256
-0.0133708
-0.0121888
-0.0106972
-0.0089092
-0.00668275
-0.00432405
-0.0021513
-0.00242483
-0.00362751
-0.00590962
-0.00842088
-0.0106084
-0.0123087
-0.0135946
-0.0145499
-0.0152211
-0.0156139
-0.0157389
-0.0155858
-0.0151562
-0.014449
-0.0134795
-0.0122679
-0.010895
-0.00920399
-0.00749615
-0.00568542
-0.00446769
-0.0056331
-0.00778721
-0.0100903
-0.0120041
-0.0134368
-0.0145361
-0.0153633
-0.0159463
-0.0162878
-0.0163981
-0.0162708
-0.0159121
-0.0153256
-0.0145285
-0.013525
-0.0124594
-0.0111443
-0.00994242
-0.0084707
-0.00634101
-0.00738704
-0.00931439
-0.0113781
-0.0130356
-0.0142597
-0.0152275
-0.0159623
-0.016482
-0.0167883
-0.0168913
-0.0167871
-0.0164835
-0.0159876
-0.0153225
-0.0144635
-0.01363
-0.012539
-0.0117152
-0.0105386
-0.00772064
-0.00866095
-0.0103896
-0.0122552
-0.0137265
-0.0148107
-0.0156883
-0.0163577
-0.0168324
-0.0171137
-0.0172112
-0.0171242
-0.0168599
-0.016424
-0.0158543
-0.0150735
-0.0144334
-0.0134102
-0.0129279
-0.0119421
-0.00851599
-0.00936487
-0.0109624
-0.0127112
-0.014075
-0.0150879
-0.0159181
-0.0165499
-0.0169988
-0.0172665
-0.0173614
-0.0172841
-0.0170422
-0.016636
-0.016128
-0.0153548
-0.0148975
-0.0137802
-0.0136399
-0.0127188
-0.0086839
-0.00949867
-0.0110229
-0.0127393
-0.0140882
-0.0151033
-0.0159224
-0.0165435
-0.0169852
-0.0172499
-0.0173439
-0.0172677
-0.0170296
-0.0166274
-0.0161302
-0.015331
-0.0149853
-0.0136874
-0.0138931
-0.0128538
-0.0082441
-0.00908449
-0.0105927
-0.0123586
-0.0137674
-0.0148423
-0.0156913
-0.0163335
-0.0167902
-0.0170645
-0.0171606
-0.0170785
-0.0168264
-0.0164056
-0.0158558
-0.0150632
-0.0146089
-0.0132162
-0.0136267
-0.0123493
-0.00730808
-0.00822886
-0.00976179
-0.0115806
-0.0131172
-0.0143007
-0.0152232
-0.0159211
-0.016417
-0.0167143
-0.0168163
-0.0167207
-0.0164365
-0.0159638
-0.015329
-0.0144969
-0.013805
-0.0123837
-0.0128174
-0.0112104
-0.00618604
-0.00714712
-0.00865256
-0.0104131
-0.0121043
-0.0134458
-0.014495
-0.0152923
-0.015859
-0.0161978
-0.0163122
-0.0161993
-0.015867
-0.0153135
-0.0145643
-0.0136141
-0.0126309
-0.011175
-0.0114743
-0.00948167
-0.00515637
-0.00604428
-0.00738267
-0.00895741
-0.0106884
-0.0122238
-0.0134759
-0.0144355
-0.0151164
-0.0155233
-0.0156623
-0.0155305
-0.0151349
-0.0144713
-0.0135641
-0.0124163
-0.011131
-0.00958849
-0.00967234
-0.00721949
-0.0046997
-0.0051741
-0.00600991
-0.00724046
-0.00887966
-0.0105979
-0.0121082
-0.013304
-0.0141652
-0.0146857
-0.014874
-0.0147287
-0.0142612
-0.0134631
-0.0123579
-0.0109582
-0.00938216
-0.00768881
-0.00745571
-0.00445244
-0.00474777
-0.0046377
-0.00460245
-0.005318
-0.00677856
-0.00860031
-0.0103744
-0.0118552
-0.0129613
-0.0136607
-0.0139561
-0.0138376
-0.0133051
-0.012366
-0.0110433
-0.00936146
-0.00746191
-0.00555356
-0.00483933
-0.00103582
-0.00462248
-0.00394974
-0.00311211
-0.00332535
-0.00459702
-0.00646184
-0.00843904
-0.0101626
-0.011514
-0.0124125
-0.0128397
-0.0127776
-0.0122404
-0.0112091
-0.00971115
-0.00777116
-0.00555709
-0.00323047
-0.00141017
0.00448283
-0.00396209
-0.00298848
-0.00178133
-0.00174282
-0.00285883
-0.00472024
-0.00682517
-0.00877199
-0.0103357
-0.0114254
-0.0119866
-0.0120153
-0.0114945
-0.0104294
-0.00882745
-0.00667594
-0.0039597
-0.000478273
0.00503185
0.0176164
-0.00533566
-0.0020887
-0.000709186
-0.000751792
-0.00176495
-0.00358361
-0.00576076
-0.00789839
-0.00964564
-0.0108821
-0.0115497
-0.0116559
-0.0111999
-0.0101905
-0.00859471
-0.006252
-0.00227499
0.00513628
0.0193872
0.0420538
)
;

boundaryField
{
    movingWall
    {
        type            zeroGradient;
    }
    fixedWalls
    {
        type            zeroGradient;
    }
    frontAndBack
    {
        type            empty;
    }
}


// ************************************************************************* //
