/*--------------------------------*- C++ -*----------------------------------*\
| =========                 |                                                 |
| \\      /  F ield         | OpenFOAM: The Open Source CFD Toolbox           |
|  \\    /   O peration     | Version:  5.0                                   |
|   \\  /    A nd           | Web:      www.OpenFOAM.org                      |
|    \\/     M anipulation  |                                                 |
\*---------------------------------------------------------------------------*/
FoamFile
{
    version     2.0;
    format      ascii;
    class       surfaceScalarField;
    location    "9.5";
    object      phi;
}
// * * * * * * * * * * * * * * * * * * * * * * * * * * * * * * * * * * * * * //

dimensions      [0 3 -1 0 0 0 0];

internalField   nonuniform List<scalar> 
760
(
3.00148e-07
-3.00155e-07
1.6949e-07
1.30658e-07
-5.66388e-07
7.35877e-07
-2.14285e-06
1.57646e-06
-3.99982e-06
1.85697e-06
-5.55803e-06
1.55821e-06
-6.87671e-06
1.31868e-06
-7.81484e-06
9.38121e-07
-8.54321e-06
7.28378e-07
-8.99525e-06
4.52034e-07
-9.27993e-06
2.84677e-07
-9.32935e-06
4.94288e-08
-9.21191e-06
-1.1744e-07
-8.87867e-06
-3.33247e-07
-8.30596e-06
-5.7271e-07
-7.37074e-06
-9.35214e-07
-5.98469e-06
-1.38605e-06
-4.00845e-06
-1.97624e-06
-1.62878e-06
-2.37966e-06
-1.62878e-06
-2.94761e-07
-5.3933e-09
-1.31681e-06
1.15271e-06
-3.0816e-06
2.50066e-06
-4.80019e-06
3.29505e-06
-6.00893e-06
3.06571e-06
-7.10953e-06
2.65881e-06
-7.90494e-06
2.1141e-06
-8.58767e-06
1.62085e-06
-9.02951e-06
1.17021e-06
-9.30372e-06
7.26247e-07
-9.37222e-06
3.53177e-07
-9.27935e-06
-4.34446e-08
-9.05774e-06
-3.39047e-07
-8.6827e-06
-7.08286e-07
-8.1205e-06
-1.13491e-06
-7.33135e-06
-1.72437e-06
-6.18771e-06
-2.52969e-06
-4.56156e-06
-3.60239e-06
-2.35063e-06
-4.59059e-06
-3.97942e-06
-1.08618e-06
1.08079e-06
-2.70733e-06
2.77386e-06
-4.25039e-06
4.04372e-06
-5.37033e-06
4.41499e-06
-6.21545e-06
3.91084e-06
-6.86324e-06
3.3066e-06
-7.23778e-06
2.48864e-06
-7.46472e-06
1.84778e-06
-7.46761e-06
1.17311e-06
-7.43712e-06
6.95752e-07
-7.32995e-06
2.46013e-07
-7.22934e-06
-1.44055e-07
-6.98457e-06
-5.83821e-07
-6.66709e-06
-1.02576e-06
-6.21371e-06
-1.58829e-06
-5.6648e-06
-2.27328e-06
-4.94288e-06
-3.25162e-06
-3.91098e-06
-4.63429e-06
-2.30289e-06
-6.19868e-06
-6.28231e-06
-1.42414e-06
2.50493e-06
-3.00933e-06
4.35904e-06
-4.2318e-06
5.26619e-06
-4.98409e-06
5.16728e-06
-5.44151e-06
4.36826e-06
-5.60918e-06
3.47427e-06
-5.64392e-06
2.52337e-06
-5.64745e-06
1.85131e-06
-5.66923e-06
1.19489e-06
-5.67458e-06
7.011e-07
-5.61056e-06
1.82003e-07
-5.48483e-06
-2.69788e-07
-5.29403e-06
-7.74625e-07
-5.01486e-06
-1.30493e-06
-4.63502e-06
-1.96813e-06
-4.14722e-06
-2.76108e-06
-3.59904e-06
-3.7998e-06
-2.90212e-06
-5.33121e-06
-1.80383e-06
-7.29696e-06
-8.08614e-06
-1.43462e-06
3.93955e-06
-2.73153e-06
5.65595e-06
-3.58143e-06
6.11608e-06
-4.05026e-06
5.63611e-06
-4.22432e-06
4.54232e-06
-4.26891e-06
3.51887e-06
-4.32578e-06
2.58024e-06
-4.36998e-06
1.8955e-06
-4.40605e-06
1.23096e-06
-4.40229e-06
6.97336e-07
-4.35857e-06
1.38281e-07
-4.24859e-06
-3.79761e-07
-4.07491e-06
-9.48308e-07
-3.82203e-06
-1.55781e-06
-3.50558e-06
-2.28458e-06
-3.10521e-06
-3.16145e-06
-2.67612e-06
-4.22888e-06
-2.22693e-06
-5.7804e-06
-1.42131e-06
-8.10258e-06
-9.50745e-06
-1.17728e-06
5.11683e-06
-2.11881e-06
6.59748e-06
-2.73763e-06
6.7349e-06
-3.04224e-06
5.94072e-06
-3.15173e-06
4.65182e-06
-3.19951e-06
3.56665e-06
-3.2742e-06
2.65493e-06
-3.32977e-06
1.95107e-06
-3.36979e-06
1.27099e-06
-3.36606e-06
6.93602e-07
-3.32755e-06
9.97714e-08
-3.23367e-06
-4.73638e-07
-3.08542e-06
-1.09656e-06
-2.87082e-06
-1.77242e-06
-2.59975e-06
-2.55564e-06
-2.25912e-06
-3.50208e-06
-1.87166e-06
-4.61635e-06
-1.47882e-06
-6.17324e-06
-1.08309e-06
-8.49832e-06
-1.05905e-05
-8.49447e-07
5.96628e-06
-1.50825e-06
7.25628e-06
-1.94857e-06
7.17523e-06
-2.14312e-06
6.13526e-06
-2.23734e-06
4.74604e-06
-2.30757e-06
3.63688e-06
-2.38662e-06
2.73398e-06
-2.4395e-06
2.00395e-06
-2.4773e-06
1.30879e-06
-2.47743e-06
6.93736e-07
-2.44904e-06
7.13758e-08
-2.37876e-06
-5.43912e-07
-2.26841e-06
-1.20691e-06
-2.1071e-06
-1.93373e-06
-1.90258e-06
-2.76017e-06
-1.65428e-06
-3.75038e-06
-1.36184e-06
-4.90878e-06
-1.0838e-06
-6.45128e-06
-8.02307e-07
-8.77982e-06
-1.13928e-05
-5.00094e-07
6.46637e-06
-9.30811e-07
7.687e-06
-1.22643e-06
7.47085e-06
-1.3694e-06
6.27823e-06
-1.45812e-06
4.83477e-06
-1.53009e-06
3.70884e-06
-1.60259e-06
2.80649e-06
-1.64973e-06
2.05108e-06
-1.68282e-06
1.34188e-06
-1.68621e-06
6.97126e-07
-1.66912e-06
5.42867e-08
-1.62173e-06
-5.91307e-07
-1.54679e-06
-1.28185e-06
-1.43419e-06
-2.04632e-06
-1.28708e-06
-2.90728e-06
-1.10894e-06
-3.92851e-06
-8.90168e-07
-5.12756e-06
-6.91659e-07
-6.64979e-06
-5.90078e-07
-8.8814e-06
-1.19829e-05
-2.21379e-07
6.68775e-06
-4.45539e-07
7.91116e-06
-6.06793e-07
7.63211e-06
-7.09584e-07
6.38102e-06
-7.7869e-07
4.90387e-06
-8.38722e-07
3.76887e-06
-8.97849e-07
2.86561e-06
-9.36763e-07
2.09e-06
-9.65609e-07
1.37073e-06
-9.75309e-07
7.06826e-07
-9.72464e-07
5.14414e-08
-9.51597e-07
-6.12174e-07
-9.15944e-07
-1.3175e-06
-8.58977e-07
-2.10329e-06
-7.83249e-07
-2.98301e-06
-6.85608e-07
-4.02615e-06
-5.82934e-07
-5.23023e-06
-4.81351e-07
-6.75137e-06
-4.25667e-07
-8.93708e-06
-1.24086e-05
7.31419e-08
6.61461e-06
1.90876e-10
7.98411e-06
-4.60225e-08
7.67832e-06
-8.40737e-08
6.41907e-06
-1.39071e-07
4.95887e-06
-1.98141e-07
3.82794e-06
-2.41582e-07
2.90906e-06
-2.72329e-07
2.12074e-06
-2.97694e-07
1.39609e-06
-3.1403e-07
7.23162e-07
-3.25949e-07
6.33606e-08
-3.29916e-07
-6.08206e-07
-3.27376e-07
-1.32004e-06
-3.25206e-07
-2.10546e-06
-2.96442e-07
-3.01177e-06
-2.86594e-07
-4.036e-06
-2.35151e-07
-5.28168e-06
-2.36429e-07
-6.75009e-06
-3.1814e-07
-8.85537e-06
-1.27267e-05
3.35858e-07
6.27875e-06
4.8104e-07
7.83893e-06
5.48657e-07
7.6107e-06
4.91265e-07
6.47647e-06
4.42722e-07
5.00741e-06
4.08917e-07
3.86175e-06
3.84455e-07
2.93352e-06
3.65441e-07
2.13976e-06
3.44452e-07
1.41708e-06
3.23003e-07
7.44611e-07
2.96716e-07
8.96475e-08
2.66539e-07
-5.78029e-07
2.31778e-07
-1.28528e-06
1.80788e-07
-2.05447e-06
1.50736e-07
-2.98172e-06
3.01541e-08
-3.91542e-06
5.62687e-08
-5.30779e-06
-1.02636e-07
-6.59119e-06
-2.12607e-07
-8.7454e-06
-1.29393e-05
5.89844e-07
5.68891e-06
9.4245e-07
7.48632e-06
1.13534e-06
7.41781e-06
1.10073e-06
6.51108e-06
1.05404e-06
5.0541e-06
1.02486e-06
3.89093e-06
1.01304e-06
2.94533e-06
1.00592e-06
2.14688e-06
9.90901e-07
1.4321e-06
9.66091e-07
7.69421e-07
9.26789e-07
1.2895e-07
8.71668e-07
-5.22907e-07
7.97826e-07
-1.21144e-06
7.14502e-07
-1.97115e-06
5.89004e-07
-2.85622e-06
4.75134e-07
-3.80155e-06
3.21927e-07
-5.15458e-06
6.96841e-08
-6.33894e-06
-1.21452e-07
-8.55426e-06
-1.30608e-05
8.76381e-07
4.81253e-06
1.36571e-06
6.99699e-06
1.68601e-06
7.09751e-06
1.74459e-06
6.4525e-06
1.69501e-06
5.10368e-06
1.67713e-06
3.90881e-06
1.67899e-06
2.94348e-06
1.68252e-06
2.14335e-06
1.67284e-06
1.44179e-06
1.64517e-06
7.97087e-07
1.5922e-06
1.81921e-07
1.51255e-06
-4.43254e-07
1.40148e-06
-1.10037e-06
1.26233e-06
-1.832e-06
1.06822e-06
-2.66211e-06
8.83622e-07
-3.61695e-06
5.9248e-07
-4.86344e-06
2.59446e-07
-6.00591e-06
1.73775e-08
-8.3122e-06
-1.30434e-05
1.11908e-06
3.69344e-06
1.8288e-06
6.28727e-06
2.25279e-06
6.67352e-06
2.44072e-06
6.26458e-06
2.4154e-06
5.129e-06
2.40433e-06
3.91988e-06
2.41204e-06
2.93576e-06
2.42362e-06
2.13177e-06
2.41927e-06
1.44613e-06
2.38974e-06
8.26623e-07
2.32615e-06
2.45506e-07
2.22351e-06
-3.40615e-07
2.07548e-06
-9.52334e-07
1.88467e-06
-1.64119e-06
1.63895e-06
-2.41639e-06
1.36913e-06
-3.34713e-06
9.65858e-07
-4.46017e-06
5.16976e-07
-5.55703e-06
1.30858e-07
-7.92608e-06
-1.29126e-05
1.3482e-06
2.34525e-06
2.14733e-06
5.48814e-06
2.70087e-06
6.11999e-06
3.09456e-06
5.87088e-06
3.23228e-06
4.99128e-06
3.26256e-06
3.8896e-06
3.27436e-06
2.92396e-06
3.28683e-06
2.1193e-06
3.28127e-06
1.45169e-06
3.24563e-06
8.62267e-07
3.17058e-06
3.20557e-07
3.04526e-06
-2.15303e-07
2.86052e-06
-7.67586e-07
2.61956e-06
-1.40024e-06
2.30523e-06
-2.10206e-06
1.92601e-06
-2.96791e-06
1.38148e-06
-3.91564e-06
7.5345e-07
-4.929e-06
2.86929e-07
-7.45956e-06
-1.26256e-05
1.36151e-06
9.83744e-07
2.30974e-06
4.5399e-06
3.03299e-06
5.39674e-06
3.66167e-06
5.2422e-06
4.03583e-06
4.61712e-06
4.21497e-06
3.71045e-06
4.29932e-06
2.83962e-06
4.33936e-06
2.07926e-06
4.33761e-06
1.45344e-06
4.29538e-06
9.045e-07
4.19803e-06
4.17909e-07
4.05376e-06
-7.10375e-08
3.82374e-06
-5.37567e-07
3.52451e-06
-1.101e-06
3.1205e-06
-1.69805e-06
2.59994e-06
-2.44734e-06
1.91059e-06
-3.22629e-06
1.11242e-06
-4.13083e-06
5.24744e-07
-6.87188e-06
-1.21009e-05
7.81394e-07
2.0235e-07
1.97464e-06
3.34666e-06
3.08075e-06
4.29062e-06
3.99357e-06
4.32939e-06
4.67513e-06
3.93556e-06
5.12169e-06
3.26389e-06
5.39375e-06
2.56757e-06
5.5433e-06
1.92971e-06
5.60397e-06
1.39277e-06
5.59702e-06
9.11446e-07
5.5023e-06
5.12624e-07
5.30961e-06
1.21662e-07
5.0322e-06
-2.60167e-07
4.65027e-06
-7.19068e-07
4.11497e-06
-1.16276e-06
3.41607e-06
-1.74844e-06
2.49491e-06
-2.30513e-06
1.50185e-06
-3.13778e-06
8.57127e-07
-6.22715e-06
-1.12438e-05
-1.69942e-07
3.72291e-07
1.24487e-06
1.93185e-06
2.61e-06
2.92549e-06
3.86435e-06
3.07504e-06
4.89585e-06
2.90406e-06
5.68521e-06
2.47453e-06
6.23888e-06
2.0139e-06
6.62891e-06
1.53967e-06
6.83035e-06
1.19134e-06
6.91764e-06
8.24158e-07
6.84696e-06
5.83297e-07
6.69822e-06
2.70405e-07
6.36044e-06
7.76109e-08
5.89912e-06
-2.57742e-07
5.21425e-06
-4.77886e-07
4.36153e-06
-8.95723e-07
3.18324e-06
-1.12684e-06
2.17634e-06
-2.13088e-06
1.41484e-06
-5.46564e-06
-9.82892e-06
-1.19994e-06
1.57223e-06
-1.79511e-07
9.11424e-07
1.4405e-06
1.30548e-06
3.02156e-06
1.49398e-06
4.4024e-06
1.52321e-06
5.51726e-06
1.35966e-06
6.35106e-06
1.1801e-06
6.94739e-06
9.43347e-07
7.34286e-06
7.95865e-07
7.54679e-06
6.20226e-07
7.60631e-06
5.23782e-07
7.49099e-06
3.85725e-07
7.25145e-06
3.17152e-07
6.81403e-06
1.79676e-07
6.23295e-06
1.03189e-07
5.42916e-06
-9.19286e-08
4.59472e-06
-2.92399e-07
3.88776e-06
-1.42392e-06
2.63181e-06
-4.20969e-06
-7.19711e-06
1.57223e-06
2.48365e-06
3.78913e-06
5.28312e-06
6.80632e-06
8.16599e-06
9.34609e-06
1.02894e-05
1.10853e-05
1.17055e-05
1.22293e-05
1.2615e-05
1.29322e-05
1.31119e-05
1.32151e-05
1.31231e-05
1.28307e-05
1.14068e-05
7.19711e-06
)
;

boundaryField
{
    movingWall
    {
        type            calculated;
        value           uniform 0;
    }
    fixedWalls
    {
        type            calculated;
        value           uniform 0;
    }
    frontAndBack
    {
        type            empty;
        value           nonuniform 0();
    }
}


// ************************************************************************* //
