/*--------------------------------*- C++ -*----------------------------------*\
| =========                 |                                                 |
| \\      /  F ield         | OpenFOAM: The Open Source CFD Toolbox           |
|  \\    /   O peration     | Version:  5.0                                   |
|   \\  /    A nd           | Web:      www.OpenFOAM.org                      |
|    \\/     M anipulation  |                                                 |
\*---------------------------------------------------------------------------*/
FoamFile
{
    version     2.0;
    format      ascii;
    class       volVectorField;
    location    "9.5";
    object      U;
}
// * * * * * * * * * * * * * * * * * * * * * * * * * * * * * * * * * * * * * //

dimensions      [0 1 -1 0 0 0 0];

internalField   nonuniform List<vector> 
400
(
(0.00267739 -0.00425035 0)
(0.0088208 -0.00208622 0)
(-0.00305466 0.00174541 0)
(-0.0161168 0.00973869 0)
(-0.0669194 0.020812 0)
(-0.0996575 0.0151689 0)
(-0.129863 0.0151452 0)
(-0.149556 0.0114357 0)
(-0.166371 0.0100433 0)
(-0.176706 0.00709964 0)
(-0.184375 0.00575182 0)
(-0.187664 0.00338585 0)
(-0.188193 0.00117996 0)
(-0.18271 -0.00142322 0)
(-0.173138 -0.00475348 0)
(-0.155616 -0.00928412 0)
(-0.131182 -0.0145115 0)
(-0.0964322 -0.0201567 0)
(-0.0576657 -0.0199684 0)
(-0.0118027 -0.0045134 0)
(-0.000852777 -0.00904302 0)
(-0.0105809 0.00777327 0)
(-0.0393793 0.0306523 0)
(-0.0806819 0.0520559 0)
(-0.112968 0.0490297 0)
(-0.134454 0.0427885 0)
(-0.153131 0.0352674 0)
(-0.167121 0.0245445 0)
(-0.178065 0.0178344 0)
(-0.184543 0.00981492 0)
(-0.188418 0.0045887 0)
(-0.188353 -0.00201707 0)
(-0.185603 -0.00704896 0)
(-0.179337 -0.0142366 0)
(-0.16937 -0.0216474 0)
(-0.154173 -0.0330385 0)
(-0.133038 -0.0470838 0)
(-0.104245 -0.0655574 0)
(-0.0697453 -0.0789938 0)
(-0.0199409 -0.0557855 0)
(-0.00862163 0.00922523 0)
(-0.0351168 0.0413395 0)
(-0.0706597 0.067571 0)
(-0.100723 0.0771868 0)
(-0.119671 0.0690894 0)
(-0.132618 0.059081 0)
(-0.144084 0.0445126 0)
(-0.148828 0.0349613 0)
(-0.149521 0.0242501 0)
(-0.149703 0.0155749 0)
(-0.147984 0.00709967 0)
(-0.146201 -0.000497912 0)
(-0.143209 -0.00834951 0)
(-0.137624 -0.016616 0)
(-0.130339 -0.0273349 0)
(-0.119739 -0.0412551 0)
(-0.1054 -0.0617342 0)
(-0.0851476 -0.0883248 0)
(-0.0623421 -0.115408 0)
(-0.0224509 -0.112808 0)
(-0.0120426 0.0364734 0)
(-0.0456202 0.0726732 0)
(-0.0772384 0.0940111 0)
(-0.0971301 0.094697 0)
(-0.107336 0.0818807 0)
(-0.113288 0.0674053 0)
(-0.113077 0.050714 0)
(-0.111686 0.0371224 0)
(-0.113837 0.0237061 0)
(-0.113339 0.0137732 0)
(-0.113485 0.00383234 0)
(-0.111409 -0.00446863 0)
(-0.10845 -0.0138451 0)
(-0.103649 -0.0233032 0)
(-0.0971553 -0.0352054 0)
(-0.089431 -0.0496999 0)
(-0.0784677 -0.0705618 0)
(-0.0614214 -0.102285 0)
(-0.0479613 -0.139343 0)
(-0.0175482 -0.147791 0)
(-0.0120767 0.0634044 0)
(-0.046398 0.0995534 0)
(-0.0677389 0.11211 0)
(-0.0811673 0.106752 0)
(-0.0845705 0.0891834 0)
(-0.0853491 0.0709338 0)
(-0.08462 0.0520381 0)
(-0.0868447 0.038032 0)
(-0.0876695 0.0244724 0)
(-0.0884809 0.013901 0)
(-0.0879171 0.00297348 0)
(-0.0866383 -0.00694633 0)
(-0.0834527 -0.0179902 0)
(-0.0793152 -0.0296215 0)
(-0.0731927 -0.0434437 0)
(-0.0666806 -0.0597041 0)
(-0.0598228 -0.0799888 0)
(-0.0436894 -0.111301 0)
(-0.0422698 -0.157984 0)
(-0.00771066 -0.180883 0)
(-0.0103741 0.0888927 0)
(-0.0381012 0.121288 0)
(-0.0519088 0.127506 0)
(-0.0624267 0.115617 0)
(-0.0618173 0.09289 0)
(-0.0627527 0.0716798 0)
(-0.0636931 0.0529895 0)
(-0.0663455 0.0389407 0)
(-0.0667323 0.0253082 0)
(-0.0678676 0.0140217 0)
(-0.0670172 0.00239098 0)
(-0.0661073 -0.00860372 0)
(-0.0633189 -0.0206111 0)
(-0.0598441 -0.0336017 0)
(-0.0546016 -0.0488125 0)
(-0.0480552 -0.067008 0)
(-0.0443927 -0.0882495 0)
(-0.0275299 -0.11882 0)
(-0.032758 -0.165218 0)
(-0.00459628 -0.201657 0)
(-0.00794825 0.110122 0)
(-0.0275239 0.137132 0)
(-0.0375037 0.137917 0)
(-0.0446545 0.120092 0)
(-0.042586 0.0939499 0)
(-0.0449018 0.0723725 0)
(-0.0463405 0.0541607 0)
(-0.0485936 0.0397317 0)
(-0.0489591 0.0258788 0)
(-0.0499673 0.0138195 0)
(-0.0492866 0.00155656 0)
(-0.048592 -0.0104643 0)
(-0.046527 -0.0234247 0)
(-0.0439379 -0.0375559 0)
(-0.0403252 -0.0537273 0)
(-0.0340639 -0.0732312 0)
(-0.0341092 -0.0956475 0)
(-0.0175619 -0.126953 0)
(-0.028287 -0.173753 0)
(0.00114796 -0.221245 0)
(-0.00424666 0.123865 0)
(-0.0169014 0.14899 0)
(-0.0238475 0.146396 0)
(-0.0286135 0.124483 0)
(-0.0266966 0.096637 0)
(-0.0297722 0.0738657 0)
(-0.0309804 0.0556107 0)
(-0.0328054 0.0406429 0)
(-0.03318 0.0265551 0)
(-0.0339792 0.0139036 0)
(-0.0335715 0.00122602 0)
(-0.0330799 -0.0114457 0)
(-0.0316872 -0.0250294 0)
(-0.0298234 -0.0399891 0)
(-0.0279941 -0.0568148 0)
(-0.0215984 -0.0770219 0)
(-0.0248946 -0.0999761 0)
(-0.00790175 -0.130348 0)
(-0.0223688 -0.175757 0)
(0.002726 -0.233146 0)
(-0.00129059 0.132698 0)
(-0.00833108 0.156173 0)
(-0.0118094 0.15081 0)
(-0.0148733 0.126352 0)
(-0.0132871 0.096731 0)
(-0.0164252 0.0744487 0)
(-0.0171521 0.0566333 0)
(-0.0185488 0.0413898 0)
(-0.0189157 0.0271325 0)
(-0.0195721 0.0140141 0)
(-0.0194825 0.000986475 0)
(-0.0193105 -0.0121786 0)
(-0.0186735 -0.0262278 0)
(-0.0174603 -0.0418344 0)
(-0.0177386 -0.0593847 0)
(-0.0115618 -0.0801051 0)
(-0.0182951 -0.104445 0)
(-0.0019115 -0.134924 0)
(-0.0202238 -0.178767 0)
(0.0065032 -0.245132 0)
(0.00245411 0.134108 0)
(0.000144454 0.160309 0)
(-0.000433217 0.15412 0)
(-0.00209815 0.128618 0)
(-0.00104502 0.0996149 0)
(-0.00388203 0.0765691 0)
(-0.00421997 0.0580722 0)
(-0.00526574 0.0422739 0)
(-0.00561765 0.0277462 0)
(-0.00618574 0.0143008 0)
(-0.00638812 0.00109696 0)
(-0.00654829 -0.0122995 0)
(-0.0066721 -0.0264961 0)
(-0.00591841 -0.0422141 0)
(-0.00798155 -0.0602203 0)
(-0.0021513 -0.080409 0)
(-0.011565 -0.105687 0)
(0.00485884 -0.133935 0)
(-0.0170946 -0.178342 0)
(0.00748987 -0.251503 0)
(0.00571252 0.130874 0)
(0.00712205 0.159971 0)
(0.0100253 0.153763 0)
(0.00960883 0.128766 0)
(0.0104962 0.0987306 0)
(0.00817979 0.0761752 0)
(0.00814325 0.0580722 0)
(0.0074635 0.0424346 0)
(0.00717443 0.0280439 0)
(0.00668206 0.0146094 0)
(0.00622379 0.00145137 0)
(0.00575693 -0.0119826 0)
(0.0048502 -0.0262373 0)
(0.00489022 -0.0418787 0)
(0.00155323 -0.0603316 0)
(0.00592265 -0.0800176 0)
(-0.0056308 -0.107185 0)
(0.00952882 -0.134083 0)
(-0.0159823 -0.177293 0)
(0.0105237 -0.257586 0)
(0.00745692 0.121653 0)
(0.0149428 0.155941 0)
(0.0203443 0.152384 0)
(0.0218069 0.1306 0)
(0.0226565 0.10164 0)
(0.0207098 0.0781847 0)
(0.0206137 0.0592096 0)
(0.0202242 0.0431498 0)
(0.0200406 0.0286735 0)
(0.0196468 0.0152271 0)
(0.0189664 0.00218933 0)
(0.0182459 -0.0110734 0)
(0.016617 -0.0251087 0)
(0.0158038 -0.0404409 0)
(0.011789 -0.0584954 0)
(0.0141381 -0.0775394 0)
(0.0015648 -0.10434 0)
(0.0154151 -0.129129 0)
(-0.0148179 -0.173347 0)
(0.0126154 -0.26005 0)
(0.0111537 0.110203 0)
(0.0217482 0.14748 0)
(0.0302369 0.14632 0)
(0.0334847 0.130038 0)
(0.0352371 0.0996603 0)
(0.0338865 0.0767374 0)
(0.0338254 0.0581455 0)
(0.0337057 0.0424607 0)
(0.0336164 0.0284809 0)
(0.033333 0.0155141 0)
(0.0323978 0.00298511 0)
(0.0314507 -0.00976499 0)
(0.0290241 -0.0232286 0)
(0.027466 -0.0381973 0)
(0.0224849 -0.0554752 0)
(0.0225005 -0.074937 0)
(0.00924967 -0.100647 0)
(0.0197963 -0.124906 0)
(-0.0138482 -0.168502 0)
(0.0163477 -0.26082 0)
(0.0130181 0.0864919 0)
(0.0289117 0.136711 0)
(0.0414658 0.139653 0)
(0.0457817 0.129651 0)
(0.0491096 0.103591 0)
(0.0485526 0.0785456 0)
(0.0483911 0.0590029 0)
(0.0484731 0.0430371 0)
(0.0484668 0.0291793 0)
(0.0483472 0.0165085 0)
(0.0471515 0.00444868 0)
(0.0460419 -0.00773998 0)
(0.0428312 -0.0204949 0)
(0.0406263 -0.0347756 0)
(0.0346253 -0.0509552 0)
(0.0326778 -0.0697542 0)
(0.0190824 -0.0928796 0)
(0.0258038 -0.115346 0)
(-0.0114463 -0.161906 0)
(0.0199987 -0.258895 0)
(0.016958 0.066448 0)
(0.033791 0.119438 0)
(0.0494407 0.128627 0)
(0.0570318 0.121476 0)
(0.0629161 0.10172 0)
(0.0648272 0.0773774 0)
(0.0654517 0.0573997 0)
(0.0658007 0.0414853 0)
(0.0656872 0.0282922 0)
(0.0656581 0.016516 0)
(0.0640812 0.00550354 0)
(0.0628628 -0.00568258 0)
(0.0588237 -0.0172478 0)
(0.0560439 -0.0304083 0)
(0.0487623 -0.0451443 0)
(0.0448782 -0.0631045 0)
(0.0305639 -0.0839552 0)
(0.0314803 -0.105471 0)
(-0.00903616 -0.153827 0)
(0.0257914 -0.256474 0)
(0.0149201 0.0260925 0)
(0.0380236 0.102684 0)
(0.05526 0.117982 0)
(0.0665707 0.114796 0)
(0.0756981 0.100007 0)
(0.0817679 0.0790023 0)
(0.0847932 0.0590941 0)
(0.0866261 0.0425108 0)
(0.0866884 0.029094 0)
(0.0869714 0.0176255 0)
(0.084744 0.00748885 0)
(0.0834452 -0.00257395 0)
(0.0784278 -0.0127628 0)
(0.0749983 -0.0245923 0)
(0.0662345 -0.037564 0)
(0.0604009 -0.0537676 0)
(0.0447073 -0.0711155 0)
(0.0389085 -0.0900857 0)
(-0.00375409 -0.14407 0)
(0.0323828 -0.252306 0)
(0.00219496 0.00983227 0)
(0.0305763 0.0731267 0)
(0.0531304 0.0965951 0)
(0.0698783 0.0976694 0)
(0.0850442 0.0882737 0)
(0.0966125 0.072779 0)
(0.104254 0.0568655 0)
(0.109599 0.041851 0)
(0.11121 0.0291199 0)
(0.112904 0.0179635 0)
(0.110596 0.0085858 0)
(0.109398 -0.00057775 0)
(0.103141 -0.0091393 0)
(0.0986978 -0.0189817 0)
(0.0878766 -0.0290979 0)
(0.0791131 -0.0421232 0)
(0.0605074 -0.055226 0)
(0.0463549 -0.0740938 0)
(0.00286074 -0.136414 0)
(0.0420511 -0.24778 0)
(-0.0201871 -0.00289744 0)
(0.0146603 0.058525 0)
(0.0403751 0.0787233 0)
(0.0640299 0.0810048 0)
(0.085541 0.0746435 0)
(0.104912 0.0628343 0)
(0.117706 0.0503694 0)
(0.129327 0.0394918 0)
(0.133657 0.0300417 0)
(0.13878 0.0212396 0)
(0.137153 0.0139641 0)
(0.13715 0.00648091 0)
(0.130082 0.000150185 0)
(0.125104 -0.00746626 0)
(0.111554 -0.0144171 0)
(0.100174 -0.0240969 0)
(0.0772247 -0.0338054 0)
(0.055602 -0.0544306 0)
(0.0180013 -0.127373 0)
(0.055034 -0.234794 0)
(-0.0268809 0.0219975 0)
(-0.0174583 0.0218043 0)
(0.0124413 0.03985 0)
(0.0448059 0.0442536 0)
(0.0724904 0.0437998 0)
(0.0990794 0.0383462 0)
(0.117324 0.0324932 0)
(0.133406 0.0242616 0)
(0.142503 0.0196141 0)
(0.149726 0.0132737 0)
(0.151934 0.0105624 0)
(0.151973 0.00497936 0)
(0.147683 0.00337536 0)
(0.142388 -0.00200387 0)
(0.129736 -0.00344043 0)
(0.11906 -0.0101613 0)
(0.0946245 -0.0140021 0)
(0.07971 -0.0402932 0)
(0.0572665 -0.112693 0)
(0.0794915 -0.183389 0)
(0.0350826 0.0316166 0)
(0.0391788 0.0179984 0)
(0.0570681 0.0162824 0)
(0.0904759 0.0182938 0)
(0.118498 0.0201291 0)
(0.148482 0.0192294 0)
(0.172865 0.0177194 0)
(0.195704 0.0157547 0)
(0.213318 0.0137826 0)
(0.228527 0.0124855 0)
(0.239825 0.0107529 0)
(0.249107 0.0100516 0)
(0.255703 0.00843957 0)
(0.260303 0.00820108 0)
(0.263628 0.00672568 0)
(0.26291 0.00585767 0)
(0.256981 0.00503134 0)
(0.2426 -0.00245892 0)
(0.202322 -0.0146846 0)
(0.14918 -0.034351 0)
)
;

boundaryField
{
    movingWall
    {
        type            fixedValue;
        value           uniform (1 0 0);
    }
    fixedWalls
    {
        type            noSlip;
    }
    frontAndBack
    {
        type            empty;
    }
}


// ************************************************************************* //
