/*--------------------------------*- C++ -*----------------------------------*\
| =========                 |                                                 |
| \\      /  F ield         | OpenFOAM: The Open Source CFD Toolbox           |
|  \\    /   O peration     | Version:  5.0                                   |
|   \\  /    A nd           | Web:      www.OpenFOAM.org                      |
|    \\/     M anipulation  |                                                 |
\*---------------------------------------------------------------------------*/
FoamFile
{
    version     2.0;
    format      ascii;
    class       volScalarField;
    location    "6";
    object      epsilon;
}
// * * * * * * * * * * * * * * * * * * * * * * * * * * * * * * * * * * * * * //

dimensions      [0 2 -3 0 0 0 0];

internalField   nonuniform List<scalar> 
400
(
1.20713e-05
3.12555e-05
0.000160944
0.000448087
0.000690623
0.00086143
0.000996405
0.00112403
0.00123496
0.00134698
0.00145202
0.00156145
0.00167188
0.0017504
0.00178711
0.00179263
0.00167312
0.0013296
0.000814476
0.000585077
5.70015e-05
0.000158283
0.000487898
0.000828966
0.000928198
0.000973223
0.000989953
0.00103671
0.00108273
0.00116476
0.00126465
0.00139554
0.00155105
0.00173601
0.00194257
0.00215595
0.00226094
0.00227646
0.00183471
0.00123557
0.000214687
0.000552115
0.00084767
0.000917238
0.000928623
0.000936191
0.00093653
0.000976807
0.00103756
0.00111651
0.00120478
0.00130413
0.00141858
0.0015615
0.00173799
0.00195373
0.00215204
0.00223687
0.00209081
0.00162003
0.000482984
0.000855079
0.000927326
0.000897978
0.000879669
0.000858801
0.000857957
0.000894479
0.000930079
0.000971293
0.00101612
0.0010781
0.00117144
0.00130668
0.00150722
0.00178336
0.00209003
0.00222891
0.00221453
0.00186667
0.000745063
0.000989456
0.000915724
0.000837766
0.000780537
0.000753646
0.000743627
0.000741475
0.000738736
0.000738376
0.000751932
0.000790838
0.000871227
0.00101271
0.00124687
0.00160231
0.00207412
0.00236388
0.00240511
0.00205444
0.000916772
0.0010029
0.000871224
0.000747421
0.000685021
0.000645123
0.000611697
0.000577084
0.000540872
0.000517808
0.000509774
0.000525631
0.000592368
0.000727969
0.000976061
0.00139213
0.00201192
0.00254237
0.00267459
0.00220359
0.000959357
0.000972347
0.00079016
0.000665386
0.000599174
0.000546945
0.000494252
0.000438813
0.000386016
0.000349743
0.000334488
0.00033426
0.000382418
0.000496422
0.000728358
0.00116454
0.00189884
0.00272187
0.00298698
0.00232071
0.000945692
0.000903516
0.000712702
0.000595982
0.000528483
0.00046831
0.00040483
0.000340849
0.000284347
0.000244255
0.000225131
0.000220874
0.000249857
0.000335233
0.000529551
0.000943984
0.00173041
0.00284849
0.00336516
0.00241351
0.000907827
0.000815811
0.000643442
0.000539035
0.000473752
0.000410981
0.000344243
0.000279666
0.000225636
0.000187422
0.000168143
0.000162778
0.000179564
0.00023704
0.000388725
0.000759164
0.00157184
0.00290124
0.00374345
0.00247795
0.000829316
0.000741251
0.000587858
0.000495688
0.00043415
0.000372462
0.000307226
0.000245977
0.000196372
0.000161855
0.000143099
0.000137568
0.00014816
0.000187725
0.000299114
0.000614326
0.00141185
0.00291573
0.00414551
0.00252114
0.0007473
0.00067403
0.000540534
0.000460105
0.000404075
0.000347002
0.000286772
0.000230604
0.000185973
0.000154811
0.000136324
0.000130458
0.000137981
0.00016699
0.000253436
0.0005138
0.00126355
0.00289713
0.00451343
0.00254068
0.000676602
0.000631609
0.000510569
0.000437212
0.000385652
0.000332976
0.000277812
0.000228179
0.000187511
0.000158013
0.000139847
0.000133051
0.000137795
0.000161483
0.000234757
0.000458437
0.00113896
0.00285397
0.00483684
0.00254686
0.000599983
0.000586755
0.000489173
0.000417525
0.000369389
0.000323395
0.000276686
0.000231378
0.00019405
0.000167137
0.000149782
0.000143194
0.000147203
0.000166902
0.000230883
0.000435052
0.00106248
0.00281096
0.00501049
0.00253719
0.000530911
0.000567814
0.000489686
0.00041811
0.000369676
0.000324832
0.00028042
0.000239516
0.000206358
0.00018176
0.000165028
0.000159323
0.000163744
0.000183512
0.000243887
0.000432021
0.00103039
0.00278493
0.00507531
0.00251818
0.000450304
0.00053616
0.000491863
0.000425796
0.000377296
0.000333268
0.000291153
0.000253583
0.000222922
0.000200447
0.000184404
0.000181037
0.000186931
0.000209928
0.00027515
0.000465889
0.00103025
0.00277832
0.00499519
0.00248881
0.000373782
0.000517514
0.000501104
0.000452788
0.000403162
0.000358099
0.000315961
0.000278611
0.000247739
0.000225627
0.000210181
0.000210693
0.000220146
0.00025186
0.000334293
0.000557368
0.00113738
0.00286347
0.00469634
0.00240361
0.000284026
0.000453568
0.000500339
0.000490138
0.000458825
0.000414098
0.000369528
0.000329611
0.000296927
0.000274007
0.000263934
0.000269328
0.000290278
0.000347931
0.000480158
0.000805273
0.00146796
0.00314407
0.00420133
0.00228355
0.000196619
0.000408965
0.000548866
0.000599947
0.000595277
0.000565371
0.000516386
0.000473682
0.000440954
0.00043305
0.000444755
0.000482678
0.000563849
0.000719557
0.00101487
0.00169302
0.00251546
0.00382898
0.0039381
0.00210277
0.000238816
0.000432195
0.000760318
0.000923262
0.000996551
0.00101777
0.00102665
0.00104923
0.00110293
0.0012117
0.00138979
0.00166336
0.00203026
0.00262855
0.00334677
0.00443951
0.00498954
0.0047089
0.00393001
0.0018506
0.000173686
0.000278785
0.00051936
0.000745651
0.000934914
0.00106138
0.0011382
0.00119234
0.00122416
0.00125939
0.00128146
0.00132399
0.00135596
0.00142417
0.0014707
0.00156808
0.00165281
0.0017493
0.00173296
0.00155539
)
;

boundaryField
{
    movingWall
    {
        Cmu             0.09;
        kappa           0.41;
        E               9.8;
        type            epsilonWallFunction;
        value           nonuniform List<scalar> 
20
(
0.000173686
0.000278785
0.00051936
0.000745651
0.000934914
0.00106138
0.0011382
0.00119234
0.00122416
0.00125939
0.00128146
0.00132399
0.00135596
0.00142417
0.0014707
0.00156808
0.00165281
0.0017493
0.00173296
0.00155539
)
;
    }
    fixedWalls
    {
        Cmu             0.09;
        kappa           0.41;
        E               9.8;
        type            epsilonWallFunction;
        value           nonuniform List<scalar> 
60
(
1.20713e-05
5.70015e-05
0.000214687
0.000482984
0.000745063
0.000916772
0.000959357
0.000945692
0.000907827
0.000829316
0.0007473
0.000676602
0.000599983
0.000530911
0.000450304
0.000373782
0.000284026
0.000196619
0.000238816
0.000173686
0.000585077
0.00123557
0.00162003
0.00186667
0.00205444
0.00220359
0.00232071
0.00241351
0.00247795
0.00252114
0.00254068
0.00254686
0.00253719
0.00251818
0.00248881
0.00240361
0.00228355
0.00210277
0.0018506
0.00155539
1.20713e-05
3.12555e-05
0.000160944
0.000448087
0.000690623
0.00086143
0.000996405
0.00112403
0.00123496
0.00134698
0.00145202
0.00156145
0.00167188
0.0017504
0.00178711
0.00179263
0.00167312
0.0013296
0.000814476
0.000585077
)
;
    }
    frontAndBack
    {
        type            empty;
    }
}


// ************************************************************************* //
