/*--------------------------------*- C++ -*----------------------------------*\
| =========                 |                                                 |
| \\      /  F ield         | OpenFOAM: The Open Source CFD Toolbox           |
|  \\    /   O peration     | Version:  5.0                                   |
|   \\  /    A nd           | Web:      www.OpenFOAM.org                      |
|    \\/     M anipulation  |                                                 |
\*---------------------------------------------------------------------------*/
FoamFile
{
    version     2.0;
    format      ascii;
    class       volScalarField;
    location    "6";
    object      k;
}
// * * * * * * * * * * * * * * * * * * * * * * * * * * * * * * * * * * * * * //

dimensions      [0 2 -2 0 0 0 0];

internalField   nonuniform List<scalar> 
400
(
3.77612e-06
9.79432e-06
5.04772e-05
0.000140313
0.000216059
0.000269397
0.000311555
0.000351425
0.00038607
0.00042107
0.000453878
0.000488068
0.000522566
0.000547089
0.000558551
0.000560269
0.000522898
0.000415541
0.000254569
0.000182881
1.78371e-05
6.59323e-05
0.000163556
0.000324014
0.000400189
0.000486467
0.000535217
0.000603174
0.000658325
0.000721415
0.000781206
0.000843173
0.000899811
0.000958171
0.00101106
0.00103739
0.0010441
0.00094428
0.000629567
0.000386105
6.71565e-05
0.000230649
0.000409621
0.000513572
0.000578547
0.000643271
0.000687621
0.0007443
0.000792683
0.000844383
0.000889988
0.000934387
0.000975836
0.00102309
0.00107067
0.00110629
0.00111821
0.00107105
0.000784269
0.000506173
0.000151122
0.000435924
0.000549405
0.000603934
0.000650201
0.000691454
0.000725614
0.00076682
0.000802616
0.000838615
0.000870005
0.000901081
0.00093978
0.000990299
0.00105524
0.00112377
0.00115633
0.00115801
0.000927022
0.000583201
0.000233161
0.00055548
0.000611868
0.000630315
0.000658566
0.000687538
0.000714375
0.000740151
0.000752911
0.000758803
0.000765366
0.000785795
0.000826196
0.00089207
0.000991767
0.00112136
0.0012133
0.0012355
0.00105746
0.000641838
0.000286835
0.000603663
0.000622126
0.000628038
0.000650981
0.000667322
0.000672392
0.000666421
0.000647105
0.00063536
0.000631403
0.000642664
0.000681477
0.000756228
0.000880798
0.00106157
0.00125034
0.00132534
0.00119832
0.000688415
0.000300131
0.000600192
0.0006159
0.000618186
0.000627187
0.000624751
0.000607602
0.000579992
0.000547093
0.000524903
0.000515806
0.000518863
0.000552571
0.000626095
0.000759817
0.000974223
0.00125975
0.00141071
0.00133419
0.000724979
0.000295853
0.000586126
0.000599611
0.000596452
0.000594993
0.000580307
0.000549668
0.000510665
0.000472045
0.000445425
0.00043375
0.000432961
0.000459153
0.000523063
0.000650065
0.000876889
0.00122246
0.00148499
0.00147883
0.000753953
0.000284003
0.00055552
0.000572093
0.000569994
0.000564571
0.000543263
0.000506096
0.000462984
0.000423727
0.000396026
0.000382668
0.000380309
0.000399208
0.000451272
0.000562108
0.00077979
0.00115199
0.0015407
0.00160589
0.000774069
0.000259442
0.000526829
0.000545334
0.000545405
0.000538794
0.0005151
0.000476722
0.000433899
0.000396275
0.000369333
0.000354811
0.000351523
0.000364949
0.000405983
0.000501601
0.000703538
0.00108123
0.00156657
0.00173418
0.000787547
0.000233787
0.000488001
0.000515761
0.000520346
0.000515799
0.000494374
0.000458123
0.000418092
0.000383003
0.000357446
0.000342545
0.000339376
0.000349617
0.000383294
0.000463953
0.000647185
0.00101982
0.00157492
0.00184351
0.000793647
0.000211671
0.000454169
0.000492956
0.000500119
0.000497016
0.000479856
0.000446874
0.000410709
0.000378815
0.000354971
0.000340116
0.000337095
0.000345517
0.000375272
0.00044668
0.000611024
0.000966459
0.00157539
0.00193552
0.000795573
0.000187704
0.000410426
0.000464856
0.000478095
0.00047763
0.000466644
0.000440426
0.000408662
0.000380107
0.000357854
0.000343696
0.000341586
0.000348906
0.000375309
0.000441867
0.000595248
0.000923201
0.00156422
0.00198057
0.000792551
0.000166095
0.000381527
0.000448282
0.000465852
0.000464826
0.000456188
0.000435679
0.000409548
0.000384239
0.000364597
0.000351785
0.000351692
0.000359634
0.00038619
0.000449395
0.000592774
0.000902549
0.00154741
0.00199519
0.000786621
0.000140878
0.000334642
0.000419745
0.000450198
0.000455361
0.000450381
0.000436439
0.000413586
0.000391848
0.000374631
0.000364231
0.000365642
0.000375755
0.000404793
0.000469338
0.000610305
0.000897487
0.00152798
0.00194411
0.000777424
0.000116931
0.000306546
0.000404951
0.000447142
0.000459597
0.000455958
0.000444482
0.00042452
0.000405188
0.00038907
0.000381306
0.000384332
0.000397394
0.0004312
0.000501816
0.000654926
0.000918758
0.00151918
0.00184345
0.000750812
8.88413e-05
0.000243966
0.000367016
0.000445928
0.000474908
0.000474478
0.000466957
0.000449902
0.000431975
0.000416704
0.000413101
0.000418868
0.000437697
0.000483932
0.000570121
0.000760312
0.00101198
0.00153355
0.00166964
0.000713275
6.14781e-05
0.000223901
0.000379226
0.000476162
0.000529095
0.000535518
0.000531094
0.000519017
0.000504894
0.00049995
0.00050657
0.000527452
0.000571066
0.000658996
0.000788518
0.00106549
0.00133416
0.00162998
0.0014922
0.000656781
7.46628e-05
0.000250498
0.000446046
0.000561263
0.000643493
0.000679214
0.000704883
0.00072786
0.000764792
0.000813202
0.000890747
0.000992826
0.00113316
0.00133193
0.00155868
0.00187434
0.00193743
0.00179005
0.00139686
0.000577963
5.42934e-05
8.71476e-05
0.000162356
0.000233085
0.000292251
0.000331751
0.000355746
0.00037262
0.000382533
0.000393494
0.000400361
0.000413598
0.000423556
0.000444808
0.000459316
0.00048969
0.000516145
0.000546277
0.000541178
0.000485721
)
;

boundaryField
{
    movingWall
    {
        type            kqRWallFunction;
        value           nonuniform List<scalar> 
20
(
5.42934e-05
8.71476e-05
0.000162356
0.000233085
0.000292251
0.000331751
0.000355746
0.00037262
0.000382533
0.000393494
0.000400361
0.000413598
0.000423556
0.000444808
0.000459316
0.00048969
0.000516145
0.000546277
0.000541178
0.000485721
)
;
    }
    fixedWalls
    {
        type            kqRWallFunction;
        value           nonuniform List<scalar> 
60
(
3.77612e-06
1.78371e-05
6.71565e-05
0.000151122
0.000233161
0.000286835
0.000300131
0.000295853
0.000284003
0.000259442
0.000233787
0.000211671
0.000187704
0.000166095
0.000140878
0.000116931
8.88413e-05
6.14781e-05
7.46628e-05
5.42934e-05
0.000182881
0.000386105
0.000506173
0.000583201
0.000641838
0.000688415
0.000724979
0.000753953
0.000774069
0.000787547
0.000793647
0.000795573
0.000792551
0.000786621
0.000777424
0.000750812
0.000713275
0.000656781
0.000577963
0.000485721
3.77612e-06
9.79432e-06
5.04772e-05
0.000140313
0.000216059
0.000269397
0.000311555
0.000351425
0.00038607
0.00042107
0.000453878
0.000488068
0.000522566
0.000547089
0.000558551
0.000560269
0.000522898
0.000415541
0.000254569
0.000182881
)
;
    }
    frontAndBack
    {
        type            empty;
    }
}


// ************************************************************************* //
