/*--------------------------------*- C++ -*----------------------------------*\
| =========                 |                                                 |
| \\      /  F ield         | OpenFOAM: The Open Source CFD Toolbox           |
|  \\    /   O peration     | Version:  5.0                                   |
|   \\  /    A nd           | Web:      www.OpenFOAM.org                      |
|    \\/     M anipulation  |                                                 |
\*---------------------------------------------------------------------------*/
FoamFile
{
    version     2.0;
    format      ascii;
    class       volScalarField;
    location    "6";
    object      nut;
}
// * * * * * * * * * * * * * * * * * * * * * * * * * * * * * * * * * * * * * //

dimensions      [0 2 -1 0 0 0 0];

internalField   nonuniform List<scalar> 
400
(
1.06311e-07
2.76226e-07
1.42482e-06
3.95438e-06
6.08341e-06
7.5824e-06
8.76753e-06
9.88849e-06
1.08623e-05
1.18465e-05
1.27688e-05
1.37302e-05
1.47001e-05
1.53893e-05
1.57115e-05
1.57596e-05
1.47079e-05
1.16883e-05
7.16105e-06
5.14479e-06
5.02349e-07
2.47174e-06
4.93452e-06
1.13981e-05
1.55286e-05
2.18845e-05
2.60428e-05
3.15843e-05
3.6025e-05
4.02137e-05
4.34312e-05
4.58495e-05
4.69808e-05
4.75966e-05
4.73613e-05
4.49248e-05
4.33949e-05
3.5252e-05
1.94428e-05
1.08589e-05
1.89066e-06
8.67197e-06
1.78148e-05
2.58799e-05
3.244e-05
3.97801e-05
4.5438e-05
5.10422e-05
5.45042e-05
5.74723e-05
5.91702e-05
6.02525e-05
6.04147e-05
6.03299e-05
5.93622e-05
5.63788e-05
5.22928e-05
4.61549e-05
2.64763e-05
1.42337e-05
4.25561e-06
2.00013e-05
2.92951e-05
3.65558e-05
4.32532e-05
5.01045e-05
5.52317e-05
5.91642e-05
6.23359e-05
6.51654e-05
6.7041e-05
6.77814e-05
6.78541e-05
6.75469e-05
6.64921e-05
6.37326e-05
5.7578e-05
5.41468e-05
3.49253e-05
1.63988e-05
6.56694e-06
2.80662e-05
3.67954e-05
4.2681e-05
5.00089e-05
5.64506e-05
6.17647e-05
6.64946e-05
6.90621e-05
7.01816e-05
7.01136e-05
7.02705e-05
7.05143e-05
7.07222e-05
7.09973e-05
7.06291e-05
6.38769e-05
5.81165e-05
4.1844e-05
1.80468e-05
8.0769e-06
3.2702e-05
3.99825e-05
4.74951e-05
5.5677e-05
6.21257e-05
6.65197e-05
6.9263e-05
6.96783e-05
7.01639e-05
7.03848e-05
7.0718e-05
7.05592e-05
7.07025e-05
7.15349e-05
7.28554e-05
6.99344e-05
6.21809e-05
4.83201e-05
1.93558e-05
8.45055e-06
3.33428e-05
4.32064e-05
5.169e-05
5.90858e-05
6.42262e-05
6.72253e-05
6.89934e-05
6.97847e-05
7.09008e-05
7.15871e-05
7.24874e-05
7.18589e-05
7.10677e-05
7.13372e-05
7.33506e-05
7.52176e-05
6.58041e-05
5.3635e-05
2.03833e-05
8.32997e-06
3.42207e-05
4.54019e-05
5.37231e-05
6.02887e-05
6.4718e-05
6.71694e-05
6.88576e-05
7.05278e-05
7.31053e-05
7.52116e-05
7.63829e-05
7.59391e-05
7.34519e-05
7.18205e-05
7.33106e-05
7.77251e-05
6.9675e-05
5.84889e-05
2.11974e-05
7.99626e-06
3.4045e-05
4.5779e-05
5.42458e-05
6.05519e-05
6.4631e-05
6.69643e-05
6.89819e-05
7.16154e-05
7.53131e-05
7.83803e-05
7.99688e-05
7.98768e-05
7.73213e-05
7.31544e-05
7.20879e-05
7.5985e-05
7.36373e-05
6.20014e-05
2.17625e-05
7.30468e-06
3.3699e-05
4.55297e-05
5.40099e-05
6.01794e-05
6.41125e-05
6.65755e-05
6.88849e-05
7.19709e-05
7.58494e-05
7.91773e-05
8.0841e-05
8.09048e-05
7.90196e-05
7.57046e-05
7.25135e-05
7.45229e-05
7.57524e-05
6.52913e-05
2.21411e-05
6.58246e-06
3.17984e-05
4.4291e-05
5.29626e-05
5.92573e-05
6.33901e-05
6.58675e-05
6.82212e-05
7.099e-05
7.42783e-05
7.7465e-05
7.94573e-05
7.97272e-05
7.91797e-05
7.64404e-05
7.33679e-05
7.40797e-05
7.70536e-05
6.77684e-05
2.23124e-05
5.95983e-06
2.9392e-05
4.28356e-05
5.14869e-05
5.76486e-05
6.22374e-05
6.46937e-05
6.65326e-05
6.88761e-05
7.1769e-05
7.44466e-05
7.68654e-05
7.79738e-05
7.8489e-05
7.64922e-05
7.32958e-05
7.38074e-05
7.82652e-05
6.97072e-05
2.23665e-05
5.28507e-06
2.58378e-05
3.97573e-05
4.92706e-05
5.5583e-05
6.06012e-05
6.30959e-05
6.49604e-05
6.70101e-05
6.89576e-05
7.09792e-05
7.33358e-05
7.44289e-05
7.59555e-05
7.61087e-05
7.32989e-05
7.21965e-05
7.83396e-05
7.04599e-05
2.22815e-05
4.67666e-06
2.30721e-05
3.6934e-05
4.67141e-05
5.26021e-05
5.76596e-05
6.09209e-05
6.30258e-05
6.43909e-05
6.58222e-05
6.749e-05
6.98697e-05
7.10884e-05
7.31442e-05
7.45265e-05
7.32007e-05
7.11511e-05
7.73818e-05
7.05908e-05
2.2115e-05
3.96666e-06
1.87979e-05
3.2238e-05
4.28399e-05
4.9462e-05
5.47784e-05
5.88801e-05
6.07091e-05
6.19907e-05
6.3016e-05
6.47481e-05
6.64638e-05
6.79785e-05
7.02485e-05
7.20517e-05
7.19538e-05
7.03651e-05
7.56297e-05
6.80977e-05
2.18558e-05
3.2922e-06
1.63422e-05
2.94523e-05
3.97411e-05
4.71538e-05
5.22504e-05
5.62752e-05
5.82159e-05
5.96433e-05
6.03819e-05
6.22584e-05
6.30965e-05
6.45615e-05
6.64419e-05
6.7796e-05
6.92604e-05
6.67942e-05
7.25382e-05
6.51248e-05
2.11077e-05
2.501e-06
1.18102e-05
2.42296e-05
3.65136e-05
4.42399e-05
4.89296e-05
5.31066e-05
5.52685e-05
5.656e-05
5.70342e-05
5.81913e-05
5.86294e-05
5.93985e-05
6.05784e-05
6.09246e-05
6.46075e-05
6.27871e-05
6.732e-05
5.97173e-05
2.00514e-05
1.73004e-06
1.10324e-05
2.35815e-05
3.40126e-05
4.23244e-05
4.56517e-05
4.91599e-05
5.11821e-05
5.20295e-05
5.19466e-05
5.1928e-05
5.18741e-05
5.20537e-05
5.43179e-05
5.51387e-05
6.03504e-05
6.3686e-05
6.24485e-05
5.08874e-05
1.84626e-05
2.10082e-06
1.30668e-05
2.35509e-05
3.07079e-05
3.73965e-05
4.07949e-05
4.35566e-05
4.54431e-05
4.77288e-05
4.91183e-05
5.13809e-05
5.33336e-05
5.69213e-05
6.0742e-05
6.53323e-05
7.12205e-05
6.7707e-05
6.12428e-05
4.46843e-05
1.62454e-05
1.52747e-06
2.45179e-06
4.56782e-06
6.55745e-06
8.2221e-06
9.33251e-06
1.0007e-05
1.04803e-05
1.07583e-05
1.10652e-05
1.12575e-05
1.16282e-05
1.19074e-05
1.25034e-05
1.29105e-05
1.37631e-05
1.45065e-05
1.53534e-05
1.52102e-05
1.36514e-05
)
;

boundaryField
{
    movingWall
    {
        type            nutkWallFunction;
        Cmu             0.09;
        kappa           0.41;
        E               9.8;
        value           uniform 0;
    }
    fixedWalls
    {
        type            nutkWallFunction;
        Cmu             0.09;
        kappa           0.41;
        E               9.8;
        value           uniform 0;
    }
    frontAndBack
    {
        type            empty;
    }
}


// ************************************************************************* //
