/*--------------------------------*- C++ -*----------------------------------*\
| =========                 |                                                 |
| \\      /  F ield         | OpenFOAM: The Open Source CFD Toolbox           |
|  \\    /   O peration     | Version:  5.0                                   |
|   \\  /    A nd           | Web:      www.OpenFOAM.org                      |
|    \\/     M anipulation  |                                                 |
\*---------------------------------------------------------------------------*/
FoamFile
{
    version     2.0;
    format      ascii;
    class       volScalarField;
    location    "6";
    object      p;
}
// * * * * * * * * * * * * * * * * * * * * * * * * * * * * * * * * * * * * * //

dimensions      [0 2 -2 0 0 0 0];

internalField   nonuniform List<scalar> 
400
(
3.67514e-08
-5.99837e-05
-0.000138196
-0.000189635
-0.000723094
-0.00183265
-0.00323376
-0.00461872
-0.00575957
-0.00652897
-0.00683605
-0.00659706
-0.00578924
-0.00439414
-0.00240687
6.21818e-05
0.00274457
0.00511229
0.00657253
0.00687553
3.59818e-05
-2.36154e-05
-0.000147624
-0.000548834
-0.00136381
-0.00258336
-0.00396302
-0.00528398
-0.00637549
-0.00712768
-0.007447
-0.00728506
-0.0066166
-0.00537727
-0.00357011
-0.00125291
0.00135923
0.00383356
0.00559115
0.00628942
0.000211473
-3.60871e-05
-0.000484693
-0.00126986
-0.00241686
-0.00377598
-0.00515995
-0.0064275
-0.00747155
-0.00817633
-0.00847677
-0.00834714
-0.00776047
-0.00670754
-0.00517092
-0.00317257
-0.000826889
0.00159618
0.0036342
0.00465962
0.000111828
-0.000329693
-0.00115347
-0.0023344
-0.00375254
-0.0052243
-0.00660983
-0.00780296
-0.00871768
-0.00930965
-0.00955949
-0.0094527
-0.00896869
-0.00809758
-0.00682811
-0.00516653
-0.00316497
-0.000972232
0.00107275
0.00216389
-0.000466488
-0.00107376
-0.00217492
-0.00360654
-0.00515234
-0.00664138
-0.00796226
-0.00904196
-0.0098398
-0.0103429
-0.0105484
-0.0104541
-0.0100549
-0.0093474
-0.00832293
-0.00697996
-0.00533879
-0.00347074
-0.00160548
-0.000577343
-0.00151443
-0.00220936
-0.00342744
-0.00492018
-0.00646333
-0.00789045
-0.00910981
-0.0100752
-0.0107726
-0.0112021
-0.0113698
-0.0112834
-0.0109498
-0.0103733
-0.00955135
-0.00847966
-0.00716392
-0.00564144
-0.00412828
-0.00315646
-0.00279048
-0.00350332
-0.00470009
-0.0061344
-0.00759639
-0.00892019
-0.0100284
-0.0108897
-0.0115016
-0.0118716
-0.0120113
-0.0119328
-0.011649
-0.0111707
-0.0105028
-0.00964341
-0.00859523
-0.00738051
-0.00621326
-0.00535071
-0.00401818
-0.00469245
-0.00580352
-0.00714092
-0.00849411
-0.00970726
-0.0107133
-0.0114878
-0.0120331
-0.0123596
-0.0124808
-0.0124103
-0.0121628
-0.0117536
-0.0111949
-0.0104907
-0.00964662
-0.00867997
-0.00780275
-0.00704252
-0.00499359
-0.00562172
-0.00662881
-0.00786938
-0.00912024
-0.0102393
-0.011166
-0.011878
-0.0123778
-0.0126763
-0.0127866
-0.012722
-0.0124973
-0.0121304
-0.0116404
-0.0110401
-0.0103448
-0.00955183
-0.00888586
-0.00821996
-0.00563886
-0.00619334
-0.00711537
-0.00828471
-0.00945667
-0.0105117
-0.0113895
-0.0120662
-0.012542
-0.0128263
-0.0129313
-0.0128692
-0.0126544
-0.0123063
-0.0118495
-0.0113052
-0.0107157
-0.010015
-0.00951998
-0.00888425
-0.00591523
-0.0063995
-0.0072597
-0.0083759
-0.0094996
-0.0105243
-0.0113852
-0.0120538
-0.0125262
-0.0128094
-0.0129139
-0.0128509
-0.0126345
-0.0122852
-0.0118315
-0.0112983
-0.0107819
-0.0100774
-0.00975144
-0.00904998
-0.00581531
-0.00625793
-0.00707242
-0.00815048
-0.0092573
-0.0102809
-0.0111534
-0.0118394
-0.0123285
-0.0126237
-0.0127331
-0.0126667
-0.0124388
-0.0120702
-0.0115941
-0.01105
-0.0105277
-0.009778
-0.00963922
-0.00871207
-0.00541164
-0.00583218
-0.00660806
-0.00763863
-0.00874557
-0.00978958
-0.0106972
-0.0114236
-0.0119489
-0.0122697
-0.0123908
-0.0123203
-0.0120727
-0.0116701
-0.0111503
-0.0105585
-0.00998043
-0.00918012
-0.00917676
-0.00788655
-0.00481487
-0.00519718
-0.00591602
-0.0068842
-0.00798238
-0.00905877
-0.0100216
-0.0108105
-0.011392
-0.0117538
-0.0118958
-0.0118236
-0.0115512
-0.0111025
-0.0105201
-0.00984862
-0.00918444
-0.00832559
-0.00833332
-0.0066221
-0.00416931
-0.00447125
-0.00507278
-0.00594371
-0.00700891
-0.00811821
-0.00915014
-0.01002
-0.0106769
-0.0110963
-0.0112714
-0.0112049
-0.0109074
-0.0104044
-0.00974375
-0.00896554
-0.00818258
-0.00720623
-0.00709988
-0.00496169
-0.00361282
-0.00373821
-0.00413165
-0.00485535
-0.0058668
-0.0070069
-0.00811824
-0.0090858
-0.00983727
-0.0103326
-0.0105568
-0.0105075
-0.0101989
-0.00964291
-0.00889265
-0.00797572
-0.00701681
-0.00582325
-0.00545317
-0.00270426
-0.0032569
-0.00309033
-0.00317938
-0.00371035
-0.00465046
-0.00581609
-0.00701117
-0.00808772
-0.00894941
-0.00953891
-0.00983233
-0.00982164
-0.0095202
-0.00891636
-0.00806602
-0.00696301
-0.00571853
-0.00412866
-0.00313606
0.00098024
-0.00307949
-0.00248971
-0.00224294
-0.0025777
-0.00344697
-0.00463532
-0.00591336
-0.00710609
-0.00809241
-0.00879486
-0.00917616
-0.00921519
-0.00892039
-0.00829236
-0.00734836
-0.00600676
-0.00433624
-0.00197879
0.000485361
0.00793395
-0.00304731
-0.00195884
-0.00148475
-0.00167809
-0.0024894
-0.00369821
-0.00505159
-0.00634983
-0.00744817
-0.00825958
-0.00873415
-0.0088541
-0.00860498
-0.00796479
-0.00687617
-0.00526303
-0.00301115
0.000855198
0.00659116
0.0194806
-0.00368721
-0.000727139
-0.000142203
-0.000519572
-0.00139403
-0.00265368
-0.00410193
-0.00551116
-0.00671797
-0.00761896
-0.00816167
-0.00831281
-0.00805507
-0.00736181
-0.0061937
-0.00436713
-0.00108481
0.00528814
0.0167541
0.0344582
)
;

boundaryField
{
    movingWall
    {
        type            zeroGradient;
    }
    fixedWalls
    {
        type            zeroGradient;
    }
    frontAndBack
    {
        type            empty;
    }
}


// ************************************************************************* //
