/*--------------------------------*- C++ -*----------------------------------*\
| =========                 |                                                 |
| \\      /  F ield         | OpenFOAM: The Open Source CFD Toolbox           |
|  \\    /   O peration     | Version:  5.0                                   |
|   \\  /    A nd           | Web:      www.OpenFOAM.org                      |
|    \\/     M anipulation  |                                                 |
\*---------------------------------------------------------------------------*/
FoamFile
{
    version     2.0;
    format      ascii;
    class       surfaceScalarField;
    location    "6";
    object      phi;
}
// * * * * * * * * * * * * * * * * * * * * * * * * * * * * * * * * * * * * * //

dimensions      [0 3 -1 0 0 0 0];

internalField   nonuniform List<scalar> 
760
(
1.63595e-07
-1.63598e-07
2.45141e-09
1.61143e-07
-6.16811e-07
6.19262e-07
-1.75398e-06
1.13716e-06
-3.09427e-06
1.34029e-06
-4.30018e-06
1.20591e-06
-5.32984e-06
1.02966e-06
-6.14846e-06
8.18618e-07
-6.75717e-06
6.0871e-07
-7.16685e-06
4.09686e-07
-7.39318e-06
2.2633e-07
-7.43314e-06
3.99582e-08
-7.27319e-06
-1.59951e-07
-6.9149e-06
-3.58286e-07
-6.29741e-06
-6.17492e-07
-5.39094e-06
-9.06466e-07
-4.14706e-06
-1.24389e-06
-2.60645e-06
-1.54061e-06
-9.87814e-07
-1.61863e-06
-9.87814e-07
-2.43426e-07
7.98279e-08
-1.04628e-06
9.63994e-07
-2.29609e-06
1.86908e-06
-3.54527e-06
2.38634e-06
-4.54288e-06
2.33791e-06
-5.43612e-06
2.09916e-06
-6.16746e-06
1.761e-06
-6.7461e-06
1.39725e-06
-7.18203e-06
1.04465e-06
-7.47587e-06
7.03519e-07
-7.61376e-06
3.64222e-07
-7.57723e-06
3.42672e-09
-7.40658e-06
-3.30598e-07
-7.0536e-06
-7.11264e-07
-6.50973e-06
-1.16136e-06
-5.73084e-06
-1.68536e-06
-4.67759e-06
-2.29714e-06
-3.29323e-06
-2.92497e-06
-1.61347e-06
-3.29839e-06
-2.60129e-06
-8.24838e-07
9.04666e-07
-2.00639e-06
2.14554e-06
-3.13299e-06
2.99568e-06
-4.03771e-06
3.29106e-06
-4.79818e-06
3.09838e-06
-5.42931e-06
2.73028e-06
-5.92846e-06
2.26015e-06
-6.29133e-06
1.76012e-06
-6.52687e-06
1.28019e-06
-6.64033e-06
8.16973e-07
-6.6501e-06
3.73989e-07
-6.57665e-06
-7.00207e-08
-6.39389e-06
-5.13355e-07
-6.09345e-06
-1.01171e-06
-5.65994e-06
-1.59487e-06
-5.05735e-06
-2.28795e-06
-4.24933e-06
-3.10516e-06
-3.1714e-06
-4.0029e-06
-1.74966e-06
-4.72013e-06
-4.35095e-06
-1.08238e-06
1.98705e-06
-2.21272e-06
3.27588e-06
-3.1401e-06
3.92306e-06
-3.83648e-06
3.98744e-06
-4.38692e-06
3.64882e-06
-4.80317e-06
3.14653e-06
-5.09945e-06
2.55643e-06
-5.29821e-06
1.95888e-06
-5.41009e-06
1.39207e-06
-5.44967e-06
8.56551e-07
-5.42123e-06
3.45549e-07
-5.33055e-06
-1.607e-07
-5.16325e-06
-6.80653e-07
-4.91819e-06
-1.25677e-06
-4.58499e-06
-1.92807e-06
-4.13707e-06
-2.73586e-06
-3.53553e-06
-3.7067e-06
-2.71743e-06
-4.821e-06
-1.55817e-06
-5.87938e-06
-5.90912e-06
-1.05976e-06
3.0468e-06
-2.02287e-06
4.239e-06
-2.76098e-06
4.66116e-06
-3.30035e-06
4.52681e-06
-3.69606e-06
4.04453e-06
-3.96917e-06
3.41965e-06
-4.14849e-06
2.73574e-06
-4.25695e-06
2.06735e-06
-4.30404e-06
1.43916e-06
-4.29854e-06
8.51049e-07
-4.24384e-06
2.90847e-07
-4.14331e-06
-2.61231e-07
-3.9936e-06
-8.30361e-07
-3.79682e-06
-1.45355e-06
-3.54812e-06
-2.17677e-06
-3.22967e-06
-3.05432e-06
-2.80146e-06
-4.13491e-06
-2.19393e-06
-5.42853e-06
-1.3036e-06
-6.76972e-06
-7.21272e-06
-8.8919e-07
3.93599e-06
-1.65739e-06
5.0072e-06
-2.23086e-06
5.23463e-06
-2.64209e-06
4.93805e-06
-2.92757e-06
4.33e-06
-3.11276e-06
3.60484e-06
-3.22641e-06
2.84939e-06
-3.286e-06
2.12694e-06
-3.30078e-06
1.45394e-06
-3.27634e-06
8.2661e-07
-3.2156e-06
2.30103e-07
-3.1204e-06
-3.56431e-07
-2.99195e-06
-9.58807e-07
-2.834e-06
-1.6115e-06
-2.64813e-06
-2.36264e-06
-2.42746e-06
-3.27499e-06
-2.14791e-06
-4.41446e-06
-1.73865e-06
-5.83778e-06
-1.05247e-06
-7.4559e-06
-8.26519e-06
-6.8049e-07
4.61648e-06
-1.2435e-06
5.5702e-06
-1.66804e-06
5.65918e-06
-1.96843e-06
5.23844e-06
-2.17281e-06
4.53438e-06
-2.30231e-06
3.73434e-06
-2.37923e-06
2.92631e-06
-2.41632e-06
2.16403e-06
-2.42122e-06
1.45884e-06
-2.39784e-06
8.03228e-07
-2.34739e-06
1.79656e-07
-2.26994e-06
-4.33884e-07
-2.16676e-06
-1.06198e-06
-2.04303e-06
-1.73524e-06
-1.9061e-06
-2.49957e-06
-1.75693e-06
-3.42416e-06
-1.57964e-06
-4.59174e-06
-1.31474e-06
-6.10269e-06
-8.63898e-07
-7.90674e-06
-9.12909e-06
-4.4133e-07
5.05781e-06
-8.30869e-07
5.95974e-06
-1.12141e-06
5.94972e-06
-1.32583e-06
5.44285e-06
-1.4664e-06
4.67495e-06
-1.5573e-06
3.82524e-06
-1.61336e-06
2.98237e-06
-1.64264e-06
2.19331e-06
-1.65014e-06
1.46634e-06
-1.63788e-06
7.90965e-07
-1.60543e-06
1.47212e-07
-1.55189e-06
-4.8743e-07
-1.47791e-06
-1.13596e-06
-1.38878e-06
-1.82437e-06
-1.29591e-06
-2.59244e-06
-1.20863e-06
-3.51144e-06
-1.11688e-06
-4.6835e-06
-9.67316e-07
-6.25225e-06
-6.71423e-07
-8.20263e-06
-9.80052e-06
-2.33814e-07
5.29163e-06
-4.46206e-07
6.17213e-06
-6.06506e-07
6.11002e-06
-7.26166e-07
5.56251e-06
-8.11985e-07
4.76077e-06
-8.71946e-07
3.8852e-06
-9.13566e-07
3.02399e-06
-9.40232e-07
2.21998e-06
-9.53989e-07
1.48009e-06
-9.55105e-07
7.92081e-07
-9.42576e-07
1.34684e-07
-9.15324e-07
-5.14683e-07
-8.74052e-07
-1.17724e-06
-8.23796e-07
-1.87462e-06
-7.76734e-07
-2.6395e-06
-7.47358e-07
-3.54081e-06
-7.32457e-07
-4.6984e-06
-6.8436e-07
-6.30034e-06
-5.38711e-07
-8.34828e-06
-1.03392e-05
-1.8742e-08
5.31037e-06
-8.72259e-08
6.24062e-06
-1.33081e-07
6.15587e-06
-1.69987e-07
5.59942e-06
-2.00873e-07
4.79166e-06
-2.29414e-07
3.91375e-06
-2.56051e-07
3.05063e-06
-2.79301e-07
2.24323e-06
-2.98138e-07
1.49893e-06
-3.11628e-07
8.0557e-07
-3.18923e-07
1.41978e-07
-3.19537e-07
-5.14068e-07
-3.14431e-07
-1.18234e-06
-3.08467e-07
-1.88059e-06
-3.13497e-07
-2.63447e-06
-3.42876e-07
-3.51144e-06
-4.09077e-07
-4.6322e-06
-4.52806e-07
-6.25661e-06
-4.13562e-07
-8.38752e-06
-1.07528e-05
1.74849e-07
5.13552e-06
2.64963e-07
6.1505e-06
3.39127e-07
6.08171e-06
3.71615e-07
5.56693e-06
3.89205e-07
4.77407e-06
3.91833e-07
3.91112e-06
3.8288e-07
3.05958e-06
3.66518e-07
2.25959e-06
3.45629e-07
1.51982e-06
3.21639e-07
8.29561e-07
2.94781e-07
1.68836e-07
2.64594e-07
-4.8388e-07
2.29734e-07
-1.14748e-06
1.86248e-07
-1.8371e-06
1.23412e-07
-2.57163e-06
1.73525e-08
-3.40538e-06
-1.11773e-07
-4.50307e-06
-2.57371e-07
-6.11102e-06
-3.29266e-07
-8.31563e-06
-1.10821e-05
3.55496e-07
4.78002e-06
5.88715e-07
5.91729e-06
7.71308e-07
5.89912e-06
8.87849e-07
5.45039e-06
9.63166e-07
4.69875e-06
1.00536e-06
3.86892e-06
1.02159e-06
3.04335e-06
1.01825e-06
2.26293e-06
9.99625e-07
1.53844e-06
9.67587e-07
8.61599e-07
9.21625e-07
2.14798e-07
8.60381e-07
-4.22636e-07
7.81599e-07
-1.0687e-06
6.8185e-07
-1.73735e-06
5.52831e-07
-2.44261e-06
3.84049e-07
-3.23659e-06
1.61794e-07
-4.28082e-06
-9.05086e-08
-5.85871e-06
-2.40701e-07
-8.16544e-06
-1.13228e-05
5.28701e-07
4.25132e-06
9.01032e-07
5.54495e-06
1.18458e-06
5.61557e-06
1.38882e-06
5.24615e-06
1.52975e-06
4.55781e-06
1.62116e-06
3.77752e-06
1.67213e-06
2.99239e-06
1.69e-06
2.24506e-06
1.67982e-06
1.54862e-06
1.64366e-06
8.97759e-07
1.58019e-06
2.78266e-07
1.48731e-06
-3.29749e-07
1.36161e-06
-9.43005e-07
1.2e-06
-1.57574e-06
9.98301e-07
-2.24091e-06
7.47165e-07
-2.98546e-06
4.26201e-07
-3.95985e-06
7.60005e-08
-5.50851e-06
-1.43239e-07
-7.9462e-06
-1.1466e-05
6.67592e-07
3.58373e-06
1.1619e-06
5.05064e-06
1.54583e-06
5.23165e-06
1.85424e-06
4.93774e-06
2.07947e-06
4.33258e-06
2.2371e-06
3.61989e-06
2.33732e-06
2.89217e-06
2.38812e-06
2.19426e-06
2.39514e-06
1.5416e-06
2.36067e-06
9.3223e-07
2.28284e-06
3.56094e-07
2.15845e-06
-2.05361e-07
1.98428e-06
-7.68833e-07
1.75666e-06
-1.34813e-06
1.47413e-06
-1.95838e-06
1.13277e-06
-2.64409e-06
7.17492e-07
-3.54457e-06
2.96366e-07
-5.08739e-06
1.66321e-08
-7.66646e-06
-1.14494e-05
7.71992e-07
2.81174e-06
1.37387e-06
4.44876e-06
1.86433e-06
4.74118e-06
2.28212e-06
4.51995e-06
2.60755e-06
4.00715e-06
2.84798e-06
3.37945e-06
3.01249e-06
2.72766e-06
3.10926e-06
2.09749e-06
3.14392e-06
1.50694e-06
3.11909e-06
9.5706e-07
3.03316e-06
4.4202e-07
2.87906e-06
-5.12543e-08
2.65757e-06
-5.47345e-07
2.36319e-06
-1.05375e-06
1.9957e-06
-1.59089e-06
1.55998e-06
-2.20837e-06
1.04636e-06
-3.03095e-06
5.35842e-07
-4.57687e-06
1.47609e-07
-7.27823e-06
-1.13018e-05
7.54073e-07
2.05767e-06
1.43772e-06
3.76511e-06
2.05612e-06
4.12278e-06
2.60575e-06
3.97032e-06
3.05903e-06
3.55388e-06
3.40995e-06
3.02853e-06
3.66353e-06
2.47408e-06
3.82693e-06
1.93409e-06
3.90541e-06
1.42845e-06
3.902e-06
9.60471e-07
3.81604e-06
5.27981e-07
3.6465e-06
1.18289e-07
3.38243e-06
-2.83274e-07
3.02903e-06
-7.00354e-07
2.58197e-06
-1.14383e-06
2.05538e-06
-1.68178e-06
1.44366e-06
-2.41923e-06
8.346e-07
-3.96781e-06
3.32662e-07
-6.77629e-06
-1.09691e-05
6.38226e-07
1.41944e-06
1.39316e-06
3.01018e-06
2.15031e-06
3.36563e-06
2.84179e-06
3.27884e-06
3.43268e-06
2.96299e-06
3.90915e-06
2.55205e-06
4.26731e-06
2.11593e-06
4.51094e-06
1.69046e-06
4.64592e-06
1.29347e-06
4.6767e-06
9.29697e-07
4.60706e-06
5.97615e-07
4.43957e-06
2.8578e-07
4.15463e-06
1.66577e-09
3.77608e-06
-3.21799e-07
3.28026e-06
-6.4802e-07
2.68751e-06
-1.08903e-06
2.00269e-06
-1.73442e-06
1.28909e-06
-3.25421e-06
6.06621e-07
-6.09382e-06
-1.03625e-05
1.41267e-07
1.27817e-06
9.85798e-07
2.16565e-06
1.91833e-06
2.4331e-06
2.79983e-06
2.39734e-06
3.56714e-06
2.19568e-06
4.19984e-06
1.91935e-06
4.69389e-06
1.62188e-06
5.05037e-06
1.33398e-06
5.27839e-06
1.06545e-06
5.38528e-06
8.22806e-07
5.3777e-06
6.05196e-07
5.26021e-06
4.03271e-07
5.04464e-06
2.17236e-07
4.73211e-06
-9.26638e-09
4.27569e-06
-1.916e-07
3.70783e-06
-5.21162e-07
2.99985e-06
-1.02644e-06
2.19757e-06
-2.45193e-06
1.14147e-06
-5.03772e-06
-9.221e-06
-5.83311e-07
1.86148e-06
3.70283e-07
1.21206e-06
1.58544e-06
1.21795e-06
2.72558e-06
1.2572e-06
3.71552e-06
1.20574e-06
4.54906e-06
1.0858e-06
5.23004e-06
9.40905e-07
5.75655e-06
8.07476e-07
6.14545e-06
6.76548e-07
6.40245e-06
5.65804e-07
6.55245e-06
4.55196e-07
6.59234e-06
3.63383e-07
6.544e-06
2.65578e-07
6.36193e-06
1.72798e-07
6.10358e-06
6.67519e-08
5.72742e-06
-1.44997e-07
5.1648e-06
-4.63822e-07
4.32144e-06
-1.60858e-06
2.56588e-06
-3.28216e-06
-6.65512e-06
1.86148e-06
3.07354e-06
4.29149e-06
5.54869e-06
6.75443e-06
7.84023e-06
8.78114e-06
9.58861e-06
1.02652e-05
1.0831e-05
1.12862e-05
1.16495e-05
1.19151e-05
1.20879e-05
1.21547e-05
1.20097e-05
1.15459e-05
9.93728e-06
6.65512e-06
)
;

boundaryField
{
    movingWall
    {
        type            calculated;
        value           uniform 0;
    }
    fixedWalls
    {
        type            calculated;
        value           uniform 0;
    }
    frontAndBack
    {
        type            empty;
        value           nonuniform 0();
    }
}


// ************************************************************************* //
