/*--------------------------------*- C++ -*----------------------------------*\
| =========                 |                                                 |
| \\      /  F ield         | OpenFOAM: The Open Source CFD Toolbox           |
|  \\    /   O peration     | Version:  5.0                                   |
|   \\  /    A nd           | Web:      www.OpenFOAM.org                      |
|    \\/     M anipulation  |                                                 |
\*---------------------------------------------------------------------------*/
FoamFile
{
    version     2.0;
    format      ascii;
    class       volVectorField;
    location    "6";
    object      U;
}
// * * * * * * * * * * * * * * * * * * * * * * * * * * * * * * * * * * * * * //

dimensions      [0 1 -1 0 0 0 0];

internalField   nonuniform List<vector> 
400
(
(0.00196097 -0.00252738 0)
(0.00424594 -0.000868022 0)
(-0.00420159 0.00211977 0)
(-0.0181476 0.00791679 0)
(-0.050496 0.0139623 0)
(-0.0765783 0.0118863 0)
(-0.0993545 0.0104087 0)
(-0.117247 0.00801758 0)
(-0.131018 0.00617978 0)
(-0.140881 0.00399777 0)
(-0.146781 0.00222814 0)
(-0.149238 0.000421302 0)
(-0.148512 -0.0024215 0)
(-0.142482 -0.00457234 0)
(-0.132395 -0.00773278 0)
(-0.11604 -0.0105831 0)
(-0.094169 -0.0137894 0)
(-0.066219 -0.0156684 0)
(-0.0352278 -0.0140643 0)
(-0.00809503 -0.0038693 0)
(-0.000833071 -0.00456418 0)
(-0.00891142 0.00778847 0)
(-0.0311319 0.0244444 0)
(-0.0588731 0.0377847 0)
(-0.0827423 0.0375819 0)
(-0.10197 0.0340401 0)
(-0.118226 0.0288418 0)
(-0.130452 0.0233297 0)
(-0.140535 0.0171524 0)
(-0.147692 0.0114988 0)
(-0.151879 0.00607669 0)
(-0.152981 0.000708184 0)
(-0.15079 -0.00516363 0)
(-0.145422 -0.0116691 0)
(-0.136141 -0.0195824 0)
(-0.122238 -0.0287395 0)
(-0.103318 -0.0391366 0)
(-0.0791388 -0.0484508 0)
(-0.0493421 -0.0509244 0)
(-0.0179815 -0.0329459 0)
(-0.00671818 0.00854307 0)
(-0.0269522 0.0326172 0)
(-0.0516389 0.0503903 0)
(-0.0731562 0.05733 0)
(-0.0901102 0.0544323 0)
(-0.103822 0.0481489 0)
(-0.114822 0.0398209 0)
(-0.123283 0.0309471 0)
(-0.129292 0.0228857 0)
(-0.132321 0.0149883 0)
(-0.13352 0.00718385 0)
(-0.13272 -0.00072989 0)
(-0.130439 -0.00906253 0)
(-0.125473 -0.0181995 0)
(-0.118071 -0.0288976 0)
(-0.107349 -0.0415769 0)
(-0.0927681 -0.056527 0)
(-0.0737432 -0.0727646 0)
(-0.0486849 -0.0845022 0)
(-0.0209417 -0.0733316 0)
(-0.0105944 0.0293259 0)
(-0.0335194 0.0551768 0)
(-0.0553611 0.0698423 0)
(-0.0715726 0.0727758 0)
(-0.0836774 0.067486 0)
(-0.0931288 0.0588193 0)
(-0.0999659 0.0482237 0)
(-0.104751 0.0373295 0)
(-0.107559 0.0267832 0)
(-0.109005 0.0166731 0)
(-0.109104 0.00708069 0)
(-0.107915 -0.0024476 0)
(-0.105385 -0.0123779 0)
(-0.101238 -0.0234178 0)
(-0.0954418 -0.0362727 0)
(-0.0875431 -0.0516507 0)
(-0.0767793 -0.069931 0)
(-0.0622007 -0.0904097 0)
(-0.0417803 -0.108655 0)
(-0.0191053 -0.106462 0)
(-0.0111334 0.0499948 0)
(-0.0324317 0.0749728 0)
(-0.0500289 0.0856837 0)
(-0.0623191 0.0850601 0)
(-0.0712097 0.0770671 0)
(-0.0776052 0.0658925 0)
(-0.0817817 0.0531843 0)
(-0.0844872 0.0404995 0)
(-0.0858935 0.0284322 0)
(-0.0862896 0.0171056 0)
(-0.0856725 0.00634112 0)
(-0.084124 -0.00428406 0)
(-0.0816373 -0.0152827 0)
(-0.0781745 -0.0274137 0)
(-0.0737115 -0.0415677 0)
(-0.0680597 -0.0587302 0)
(-0.060591 -0.0797193 0)
(-0.049867 -0.104471 0)
(-0.0337965 -0.128945 0)
(-0.0169345 -0.134215 0)
(-0.00949143 0.0689779 0)
(-0.0274556 0.0920934 0)
(-0.0407153 0.0986724 0)
(-0.050288 0.0946444 0)
(-0.0567426 0.0839058 0)
(-0.0611076 0.0704587 0)
(-0.0637752 0.056055 0)
(-0.0653901 0.0420978 0)
(-0.0660488 0.0290283 0)
(-0.0659344 0.0168238 0)
(-0.0650638 0.00520691 0)
(-0.0635078 -0.00621874 0)
(-0.0612797 -0.017963 0)
(-0.0584195 -0.0307622 0)
(-0.054974 -0.0455822 0)
(-0.0509079 -0.0636059 0)
(-0.0459169 -0.0860209 0)
(-0.038599 -0.113528 0)
(-0.0281798 -0.144057 0)
(-0.0116717 -0.1568 0)
(-0.00776744 0.0850769 0)
(-0.0209014 0.105521 0)
(-0.0305102 0.108869 0)
(-0.0377242 0.101852 0)
(-0.0422436 0.0887899 0)
(-0.0452718 0.0735439 0)
(-0.0470679 0.0578877 0)
(-0.0481179 0.0430046 0)
(-0.0484769 0.0291807 0)
(-0.0482828 0.0163043 0)
(-0.0475383 0.00405719 0)
(-0.0462642 -0.00797846 0)
(-0.0444557 -0.0203089 0)
(-0.042181 -0.0335896 0)
(-0.0395567 -0.0487891 0)
(-0.0366668 -0.067246 0)
(-0.0334485 -0.0904429 0)
(-0.0284668 -0.12004 0)
(-0.0226401 -0.154667 0)
(-0.00947216 -0.175308 0)
(-0.00498875 0.0967323 0)
(-0.013902 0.115553 0)
(-0.020659 0.116383 0)
(-0.0255515 0.107023 0)
(-0.0285461 0.0922714 0)
(-0.030613 0.0757312 0)
(-0.0318683 0.0591812 0)
(-0.0326473 0.0436252 0)
(-0.0329751 0.0292598 0)
(-0.0329288 0.0159062 0)
(-0.032486 0.00318962 0)
(-0.0316285 -0.00932624 0)
(-0.0303418 -0.022119 0)
(-0.0286909 -0.0357516 0)
(-0.026835 -0.0510946 0)
(-0.0249615 -0.0695818 0)
(-0.0232577 -0.0930272 0)
(-0.0202676 -0.123961 0)
(-0.0182024 -0.161692 0)
(-0.00624656 -0.190036 0)
(-0.00295956 0.104149 0)
(-0.00736424 0.121653 0)
(-0.0113294 0.120965 0)
(-0.0140944 0.110362 0)
(-0.0158079 0.094572 0)
(-0.017096 0.077243 0)
(-0.0179496 0.0601411 0)
(-0.0185719 0.0441583 0)
(-0.0189528 0.0294453 0)
(-0.0191086 0.0157718 0)
(-0.0190022 0.0027214 0)
(-0.0186014 -0.0101563 0)
(-0.0178941 -0.0232991 0)
(-0.0169437 -0.0371784 0)
(-0.0159251 -0.0525234 0)
(-0.0150382 -0.0707714 0)
(-0.0148716 -0.0941246 0)
(-0.0133492 -0.125974 0)
(-0.0147282 -0.165939 0)
(-0.00457995 -0.201964 0)
(0.000247315 0.106923 0)
(-0.00124939 0.125119 0)
(-0.00264036 0.123402 0)
(-0.00337278 0.112036 0)
(-0.00390656 0.0958282 0)
(-0.00443782 0.0781682 0)
(-0.00489114 0.0608345 0)
(-0.00534726 0.0446566 0)
(-0.00575544 0.0297674 0)
(-0.00608565 0.0159133 0)
(-0.00629785 0.00266309 0)
(-0.00636881 -0.0104341 0)
(-0.00629593 -0.023784 0)
(-0.00613744 -0.0377746 0)
(-0.00607341 -0.0529826 0)
(-0.00622897 -0.0707664 0)
(-0.0078359 -0.0936485 0)
(-0.00738019 -0.125972 0)
(-0.0120091 -0.167613 0)
(-0.00234472 -0.211376 0)
(0.00224452 0.105412 0)
(0.00425313 0.124755 0)
(0.00572647 0.122967 0)
(0.00683698 0.112021 0)
(0.00745037 0.0959173 0)
(0.00772628 0.0784206 0)
(0.0077497 0.0611986 0)
(0.00753757 0.0450658 0)
(0.00717646 0.030178 0)
(0.00672441 0.0162979 0)
(0.00621782 0.00300898 0)
(0.00566315 -0.0101284 0)
(0.00504194 -0.023499 0)
(0.00430653 -0.037422 0)
(0.00328195 -0.0523352 0)
(0.00200086 -0.0694693 0)
(-0.00155279 -0.0917424 0)
(-0.00193551 -0.124007 0)
(-0.010021 -0.167414 0)
(-0.00076965 -0.218802 0)
(0.00409014 0.101001 0)
(0.0095734 0.122083 0)
(0.013234 0.120833 0)
(0.0163659 0.110942 0)
(0.018397 0.0951906 0)
(0.0196394 0.078096 0)
(0.0203046 0.0612136 0)
(0.0204786 0.0453261 0)
(0.0202751 0.030618 0)
(0.0197735 0.0168909 0)
(0.0190035 0.00375892 0)
(0.0179596 -0.00920086 0)
(0.0165959 -0.0223603 0)
(0.0148776 -0.0359997 0)
(0.0126432 -0.0504347 0)
(0.00995795 -0.0667491 0)
(0.00444725 -0.088181 0)
(0.00346414 -0.119986 0)
(-0.00856205 -0.165252 0)
(0.00159575 -0.224227 0)
(0.00605588 0.0921043 0)
(0.0144429 0.115595 0)
(0.0207317 0.115603 0)
(0.0254367 0.107477 0)
(0.0291171 0.0929278 0)
(0.0315001 0.0767372 0)
(0.0329923 0.0605677 0)
(0.0337336 0.0452282 0)
(0.0338387 0.0309595 0)
(0.033393 0.0176234 0)
(0.0324156 0.00489406 0)
(0.0308962 -0.00762231 0)
(0.0287529 -0.0202826 0)
(0.0259647 -0.0333692 0)
(0.0223305 -0.0471262 0)
(0.0181227 -0.0625303 0)
(0.0106383 -0.0827318 0)
(0.00883184 -0.11406 0)
(-0.00747426 -0.161612 0)
(0.00433572 -0.227938 0)
(0.00762716 0.0803525 0)
(0.0185107 0.107869 0)
(0.0270942 0.109853 0)
(0.0337267 0.102903 0)
(0.0392616 0.0897657 0)
(0.0431705 0.0746238 0)
(0.0458216 0.0593255 0)
(0.0473995 0.0447388 0)
(0.0480229 0.0311372 0)
(0.0477819 0.0184392 0)
(0.0466893 0.00638703 0)
(0.0447297 -0.00539 0)
(0.0417854 -0.0172117 0)
(0.0378842 -0.0294051 0)
(0.0326881 -0.0422294 0)
(0.0268891 -0.056566 0)
(0.0173106 -0.0753512 0)
(0.0144403 -0.106342 0)
(-0.00613818 -0.156315 0)
(0.00844645 -0.230016 0)
(0.00890555 0.0652228 0)
(0.0220036 0.0954414 0)
(0.0325415 0.10007 0)
(0.0412577 0.0950086 0)
(0.048758 0.083937 0)
(0.0545305 0.07052 0)
(0.058686 0.056663 0)
(0.06139 0.0433065 0)
(0.0627743 0.0307917 0)
(0.0629258 0.0191133 0)
(0.0618592 0.00810351 0)
(0.0595471 -0.00259324 0)
(0.0558144 -0.0131699 0)
(0.0508356 -0.0240743 0)
(0.0439816 -0.0356239 0)
(0.0365883 -0.0487348 0)
(0.0246768 -0.0661299 0)
(0.0207084 -0.0971547 0)
(-0.00421995 -0.15055 0)
(0.0135077 -0.230883 0)
(0.00844515 0.0490597 0)
(0.0229468 0.0839853 0)
(0.0353198 0.090676 0)
(0.0464026 0.0867507 0)
(0.0564183 0.0772332 0)
(0.0646117 0.0654481 0)
(0.070815 0.0531383 0)
(0.0751115 0.0412163 0)
(0.0776224 0.0300543 0)
(0.0784616 0.0196956 0)
(0.0775976 0.0100458 0)
(0.075166 0.00078662 0)
(0.0707799 -0.00818424 0)
(0.0649235 -0.0174555 0)
(0.0564493 -0.0273597 0)
(0.0476944 -0.0390263 0)
(0.0332759 -0.0548896 0)
(0.0284541 -0.0862882 0)
(-0.0014395 -0.142586 0)
(0.0203173 -0.230033 0)
(0.00614793 0.0327785 0)
(0.021511 0.0658825 0)
(0.0359021 0.0746424 0)
(0.0496397 0.0728353 0)
(0.0623639 0.0657594 0)
(0.0732593 0.0564834 0)
(0.0818281 0.0465271 0)
(0.0880224 0.0367863 0)
(0.091908 0.0276827 0)
(0.093711 0.0192871 0)
(0.0932809 0.011563 0)
(0.0911153 0.00423571 0)
(0.0863672 -0.00285588 0)
(0.0802689 -0.0101196 0)
(0.0707101 -0.0178266 0)
(0.0613461 -0.0276936 0)
(0.0447387 -0.0415271 0)
(0.0395399 -0.0734594 0)
(0.00360543 -0.1329 0)
(0.0295678 -0.223844 0)
(-0.00462476 0.0235003 0)
(0.0118426 0.0551164 0)
(0.0292757 0.0618562 0)
(0.0468545 0.0603719 0)
(0.0632582 0.0546904 0)
(0.077475 0.0473942 0)
(0.0889725 0.039747 0)
(0.0976829 0.032267 0)
(0.103616 0.0252575 0)
(0.107162 0.0188996 0)
(0.108041 0.0131707 0)
(0.10713 0.00791378 0)
(0.10326 0.00302045 0)
(0.0987262 -0.00192832 0)
(0.0898165 -0.00729822 0)
(0.0817799 -0.0149009 0)
(0.0641636 -0.0268978 0)
(0.0590751 -0.0582122 0)
(0.0164871 -0.117994 0)
(0.0451866 -0.202749 0)
(-0.0146336 0.0306413 0)
(-0.00463371 0.026786 0)
(0.0197958 0.030864 0)
(0.0431143 0.032252 0)
(0.064151 0.0305495 0)
(0.0824296 0.0270723 0)
(0.0978017 0.0230593 0)
(0.110066 0.0192184 0)
(0.119356 0.0156544 0)
(0.125961 0.0123932 0)
(0.129952 0.00949685 0)
(0.131993 0.00671621 0)
(0.131487 0.0043643 0)
(0.129732 0.00124557 0)
(0.124127 -0.00148857 0)
(0.119167 -0.00735953 0)
(0.104691 -0.0167007 0)
(0.100339 -0.0439595 0)
(0.0558164 -0.0917607 0)
(0.0770001 -0.155201 0)
(0.0404376 0.0382564 0)
(0.0463007 0.0275502 0)
(0.069824 0.0238101 0)
(0.0978023 0.0231677 0)
(0.122603 0.0223195 0)
(0.144998 0.0206372 0)
(0.165553 0.018384 0)
(0.183233 0.0164213 0)
(0.198569 0.0143021 0)
(0.211057 0.0127876 0)
(0.221518 0.0109528 0)
(0.229532 0.00987552 0)
(0.23585 0.00812498 0)
(0.239915 0.00728606 0)
(0.242394 0.0051495 0)
(0.241059 0.0029801 0)
(0.233881 0.00212163 0)
(0.219895 -0.00898351 0)
(0.171123 -0.0128637 0)
(0.145728 -0.0648537 0)
)
;

boundaryField
{
    movingWall
    {
        type            fixedValue;
        value           uniform (1 0 0);
    }
    fixedWalls
    {
        type            noSlip;
    }
    frontAndBack
    {
        type            empty;
    }
}


// ************************************************************************* //
