/*--------------------------------*- C++ -*----------------------------------*\
  =========                 |
  \\      /  F ield         | OpenFOAM: The Open Source CFD Toolbox
   \\    /   O peration     | Website:  https://openfoam.org
    \\  /    A nd           | Version:  6
     \\/     M anipulation  |
\*---------------------------------------------------------------------------*/
FoamFile
{
    version     2.0;
    format      ascii;
    class       volScalarField;
    location    "0.2";
    object      Co;
}
// * * * * * * * * * * * * * * * * * * * * * * * * * * * * * * * * * * * * * //

dimensions      [0 0 0 0 0 0 0];

internalField   nonuniform List<scalar> 
242
(
0.00298366
0.000303967
0.000292706
0.0210658
0.0189948
0.000303967
0.000292705
0.0210658
0.0189948
0.00251715
0.00599378
0.00440107
0.00446247
0.00272934
0.00420762
0.00542681
0.00452066
0.00419453
0.00614158
0.00405243
0.00624528
0.00188718
0.00618855
0.00733909
0.00176324
0.002614
0.006177
0.0063817
0.00151276
0.00268327
0.00729654
0.00687028
0.00189287
0.00251599
0.00254422
0.0301407
0.00239965
0.00343051
0.00117888
0.00408761
0.00140469
0.035914
0.00285928
0.00512721
0.00205944
0.00731329
0.00579063
0.00165129
0.00275784
0.00808375
0.0030031
0.0039285
0.0055325
0.0048392
0.00598194
0.00141195
0.00437868
0.00196265
0.0337288
0.00749415
0.00102434
0.000809516
0.00864741
0.000838589
0.0299499
0.000981326
0.0304209
0.00259664
0.00346241
0.00118984
0.00757314
0.00729606
0.00151395
0.00166316
0.00838588
0.00456999
0.00389197
0.00230001
0.00850194
0.00590328
0.00298594
0.00281942
0.0102574
0.012608
0.00147078
0.00130195
0.0081936
0.00779368
0.00201871
0.00203043
0.00594425
0.00584851
0.00373893
0.00345868
0.0390856
0.00339056
0.00207269
0.00104022
0.00921795
0.0080967
0.00372749
0.00206972
0.0481909
0.0135355
0.00146355
0.00115661
0.0163209
0.00123124
0.0439735
0.00144081
0.00748295
0.00830012
0.00138869
0.00179031
0.0129026
0.00904935
0.00133267
0.00141165
0.000595775
0.0342964
0.000524869
0.0115695
0.0138224
0.000547241
0.0320657
0.000575885
0.00330969
0.00408973
0.00290661
0.00155523
0.000596319
0.000525351
0.0343277
0.0237447
0.0263337
0.000547742
0.032095
0.000576412
0.00934213
0.00841092
0.00134348
0.00144423
0.00746765
0.00398518
0.00351592
0.00269892
0.0108677
0.0061912
0.00819918
0.00264047
0.00643927
0.00300009
0.00793755
0.00202004
0.0439211
0.00975877
0.000801712
0.00291407
0.00600114
0.00644788
0.00207491
0.00149473
0.035539
0.0101577
0.00120674
0.000985044
0.00133388
0.00105414
0.00223723
0.00151619
0.00651135
0.00515876
0.00434106
0.00195248
0.00793272
0.00809902
0.00457313
0.00362415
0.0136194
0.0167404
0.0190697
0.000852714
0.0133722
0.000874244
0.000916024
0.000830349
0.00926248
0.00876559
0.00612641
0.00624791
0.0034725
0.00305644
0.00222533
0.00193322
0.00916392
0.0082716
0.00585556
0.00803458
0.00319407
0.00267776
0.00217584
0.00227462
0.0119684
0.0107728
0.00196425
0.00202995
0.0090502
0.0150556
0.0165364
0.00945352
0.00115135
0.00115135
0.00110983
0.00110983
0.00483364
0.00570976
0.0525028
0.00482357
0.00280294
0.0072965
0.00278419
0.0013973
0.00262716
0.00178045
0.0461626
0.00450029
0.00137962
0.000878357
0.00498957
0.000944983
0.0416771
0.00141516
0.0116826
0.00683441
0.00417854
0.00324146
0.00328251
0.00731045
0.00357655
0.00191369
0.00384134
0.00435648
)
;

boundaryField
{
    frontAndBack
    {
        type            empty;
    }
    fixedWalls
    {
        type            zeroGradient;
    }
    movingWall
    {
        type            zeroGradient;
    }
}


// ************************************************************************* //
