/*--------------------------------*- C++ -*----------------------------------*\
  =========                 |
  \\      /  F ield         | OpenFOAM: The Open Source CFD Toolbox
   \\    /   O peration     | Website:  https://openfoam.org
    \\  /    A nd           | Version:  6
     \\/     M anipulation  |
\*---------------------------------------------------------------------------*/
FoamFile
{
    version     2.0;
    format      ascii;
    class       volScalarField;
    location    "0.2";
    object      p;
}
// * * * * * * * * * * * * * * * * * * * * * * * * * * * * * * * * * * * * * //

dimensions      [0 2 -2 0 0 0 0];

internalField   nonuniform List<scalar> 
242
(
-1.95398e-09
0.0156612
-0.017565
0.346452
-0.320238
0.0153153
-0.0178883
0.390709
-0.272204
-0.00272626
-0.0198464
0.0287185
-0.0248216
0.00231698
-0.0165854
-0.0192334
0.00876674
0.0153436
-0.0181031
-0.0291735
0.0326917
0.00106341
-0.0614152
0.0331864
-0.0118553
0.0212427
-0.057546
0.0378725
-0.0138359
0.0175242
0.0576134
-0.0550612
0.00886117
-0.0239937
-0.012184
-0.0117684
-0.0374594
0.0511573
0.00128055
0.0586137
0.00373601
-0.0430228
-0.0325557
0.0193633
-0.00258689
0.0493729
-0.053615
0.0106781
-0.0202334
-0.0272951
-0.0137248
-0.0140497
-0.00975235
0.00257533
0.0604307
0.00469259
-0.0560685
-0.0297543
0.0906655
-0.108679
0.0201792
-0.0137808
0.118482
0.0112613
-0.0928516
-0.0221254
-0.00953134
-0.0434788
0.0414137
-0.00193904
0.0787261
-0.0796452
0.0100216
-0.0230618
-0.0163439
-0.0412003
0.0380919
-0.00166287
0.0173421
-0.0368354
0.0155927
-0.0111118
0.0717738
-0.101712
0.0177861
-0.0155175
0.0298484
-0.0460031
0.014908
-0.0136419
0.0127652
0.0171883
0.00917029
0.00672957
-0.0147266
-0.0513365
0.0359706
-0.00433724
-0.0278679
0.0409294
-0.0298275
0.00191461
0.108628
-0.125173
0.0183692
-0.0152158
0.136923
0.0127668
-0.121442
-0.020463
-0.0798382
0.0497981
-0.0127283
0.0208662
0.0972356
-0.0940398
0.0129638
-0.020107
0.0167191
0.153144
-0.0166184
-0.169835
0.195499
0.014278
-0.168527
-0.0188817
-0.00257286
-0.0454016
0.0366459
-0.00296605
0.0160711
-0.0171705
0.198745
-0.201173
0.221136
0.0148787
-0.190497
-0.0182678
0.0770873
-0.0879488
0.0149341
-0.0175549
0.00564283
-0.0334516
0.0201949
-0.0062892
-0.0244344
-0.0362465
-0.036936
-0.0307473
0.0433212
0.00088024
0.052256
0.00369061
0.0441666
-0.0877566
-0.0710092
0.0295123
-0.0757283
0.0766778
-0.0251095
0.00866262
-0.0814064
0.092497
-0.0243544
0.00921406
0.0224945
-0.011885
0.0233446
-0.0112961
-0.000831091
-0.0369172
0.0256309
-0.00443597
-0.00243627
-0.0112861
-0.0236158
-0.0216522
0.0998923
-0.122807
0.123862
0.0172916
-0.1225
-0.0158614
0.0134514
-0.0194868
0.0146024
0.00322384
-0.0531744
-0.0437355
0.0279088
0.0262225
-0.00768881
-0.004871
-0.0313226
-0.0438386
0.0302081
0.0380603
-0.0200768
0.00658128
-0.0183232
0.0101126
0.0583504
-0.0695698
0.0146585
-0.0171426
0.127597
-0.148547
0.143537
-0.14228
0.016162
0.0148227
-0.0171349
-0.0183982
-5.21537e-05
0.00364469
0.00326094
-0.0611907
0.0123436
-0.0638803
0.029819
-0.00738112
0.0277109
-0.00809863
0.0141475
-0.0722478
0.0259447
-0.00963064
0.0761342
0.00689306
-0.0791128
-0.0275623
-0.0424005
0.050905
-0.0281903
0.00524234
0.00427255
-0.05557
0.029782
-0.00661691
-0.00177214
-0.0083065
)
;

boundaryField
{
    frontAndBack
    {
        type            empty;
    }
    fixedWalls
    {
        type            zeroGradient;
    }
    movingWall
    {
        type            zeroGradient;
    }
}


// ************************************************************************* //
