/*--------------------------------*- C++ -*----------------------------------*\
  =========                 |
  \\      /  F ield         | OpenFOAM: The Open Source CFD Toolbox
   \\    /   O peration     | Website:  https://openfoam.org
    \\  /    A nd           | Version:  6
     \\/     M anipulation  |
\*---------------------------------------------------------------------------*/
FoamFile
{
    version     2.0;
    format      ascii;
    class       surfaceScalarField;
    location    "0.2";
    object      phi;
}
// * * * * * * * * * * * * * * * * * * * * * * * * * * * * * * * * * * * * * //

dimensions      [0 3 -1 0 0 0 0];

internalField   nonuniform List<scalar> 
343
(
0.000259817
-0.000258302
-1.51456e-06
3.03596e-05
-3.03596e-05
2.92349e-05
-2.92349e-05
0.00210401
-0.00210401
0.00189716
-0.00189716
3.03596e-05
2.92348e-05
0.00210401
0.00189716
0.000224718
3.50983e-05
-0.000193475
-0.000292523
0.000485999
-0.00031536
0.000320625
-5.26563e-06
0.000382361
-0.000147016
-0.000235345
8.37112e-05
0.000116138
-0.000199849
0.000205973
-0.000452783
0.00024681
0.000521696
-0.000315723
-0.000433392
0.000393829
3.9563e-05
-0.00038127
-5.21219e-05
0.000381322
-0.000574797
0.000136484
0.000245877
-0.000482252
0.000166893
-6.11989e-05
0.00014491
-0.000315283
0.000660798
-0.000345515
-0.000176639
-0.0006132
0.00078984
0.000158361
3.14002e-05
-0.000189761
0.000281321
-2.06893e-05
-0.000260632
-0.000625031
0.000309748
0.000492435
-0.000669074
-2.40738e-07
0.000158601
0.000144594
0.000136728
0.000412799
-0.000729803
0.000317003
1.58162e-05
0.000673084
-0.0006889
-0.0001441
-4.52258e-05
0.000189326
-0.000254058
6.09621e-06
0.000247962
0.000133366
9.13527e-05
-0.00330571
0.00330571
-0.000263184
0.000263184
-0.000376245
0.000376245
-0.000129295
0.000129295
-1.60575e-05
-0.000360187
-6.10782e-05
-6.82167e-05
-0.000297114
-0.00300859
-0.000161025
-0.000102158
-6.06448e-05
0.000151236
0.000681965
-0.000269165
-0.000517098
0.000532914
9.88318e-06
-0.000153983
-0.000139007
-0.00011505
0.000370292
0.000151405
-7.00765e-05
0.000203442
0.000261356
-0.000170004
-0.000372398
-8.03842e-05
0.000141927
0.000251902
0.00047473
-0.000490787
5.47646e-05
-0.000115843
-0.000359248
6.21338e-05
-4.79208e-06
-0.000156233
0.00329412
-0.00329412
0.000731917
-0.000731917
0.000100042
-0.000100042
7.90615e-05
-7.90615e-05
-0.000859907
0.000859907
-8.339e-05
8.339e-05
-0.00297825
0.00297825
-9.75839e-05
9.75839e-05
0.00325274
5.29619e-05
0.000282165
-1.89809e-05
0.000172491
0.000203754
8.65677e-05
4.27271e-05
-0.000720871
-8.93205e-06
0.000704876
-3.17919e-05
-0.000145895
0.00010067
-0.000154712
0.000160808
-0.000273015
0.000666826
-0.00039381
0.000360766
-0.000379654
1.8887e-05
3.60114e-05
-0.000309481
0.000273469
8.55641e-05
-0.000182892
9.73274e-05
-0.000744474
0.000117401
0.000627073
0.000504726
-0.000134434
3.23409e-05
0.00023177
-0.000264111
0.000171151
-0.000241227
0.000775108
0.000246599
-0.00102171
-0.000698796
-0.000557042
0.00125584
-0.000146499
0.000134927
1.15722e-05
-0.000129683
0.000101186
2.84973e-05
-0.000252039
-0.000120305
0.000176935
0.00017091
-0.000372538
0.000489939
-0.00042466
0.000271333
1.30308e-05
0.00325274
0.000282165
0.000172491
8.65677e-05
-0.000175772
0.000557094
-8.30707e-05
-0.000399181
0.000225766
-8.92817e-05
6.2077e-05
-0.000123276
0.00274272
0.000551406
0.000925231
-0.000193314
4.76447e-05
5.23972e-05
4.19745e-05
3.7087e-05
-0.00110539
0.000245481
-4.37636e-05
-3.96264e-05
-0.00256433
-0.000413922
-4.60543e-05
-5.15296e-05
-3.79979e-05
0.000161908
-9.82828e-05
-0.000167188
0.000691641
-0.00141251
-0.00028562
0.000990496
-0.000117671
-2.82241e-05
-0.000144737
-9.9749e-06
4.76447e-05
0.00274272
4.19745e-05
0.000925231
-0.00110539
-4.37636e-05
-0.00256433
-4.60543e-05
-0.000220054
0.000341786
0.000239766
0.000128291
1.72851e-05
1.27397e-05
0.000638704
-0.000971931
0.000998627
-1.3404e-05
-0.000667167
-1.68194e-05
0.00093824
-0.000842662
1.72557e-05
-4.3551e-05
0.000278294
0.000348779
0.000226716
-0.00036115
-0.000324756
-8.99914e-05
0.000491054
-0.000153888
0.000131806
-0.00015868
-0.000392551
-0.000120815
8.21784e-05
-6.605e-05
-0.000228748
-0.00306538
-0.00043308
-0.000298837
3.03418e-05
-6.68403e-05
-0.000471077
-0.000499719
4.57462e-06
-1.51733e-05
0.00300859
0.000360187
0.000102158
6.82167e-05
-8.42975e-06
-9.16123e-05
-2.07351e-05
-5.83264e-05
-0.000175618
-0.000119018
-0.000296504
0.000472593
-0.000157863
5.49187e-05
0.000608247
-0.000259467
-0.00011434
-0.000470301
0.00106252
-0.00116703
6.39694e-05
0.000576574
6.55843e-05
-6.78505e-05
-6.15045e-05
0.000690314
9.95256e-05
-0.00049148
0.000145965
0.000115606
-0.000145026
-0.000152246
-3.75147e-05
0.000637403
-0.000429926
-3.19028e-05
-0.000186818
0.000168403
9.05929e-05
8.12545e-05
7.83239e-05
-0.000230472
0.000187368
0.00306538
-1.66729e-05
0.000298837
0.000120528
-0.00048775
8.08783e-05
9.16122e-05
2.82413e-05
5.83264e-05
-9.47399e-05
-9.07766e-05
0.000250388
)
;

boundaryField
{
    frontAndBack
    {
        type            empty;
        value           nonuniform 0();
    }
    fixedWalls
    {
        type            calculated;
        value           uniform 0;
    }
    movingWall
    {
        type            calculated;
        value           uniform 0;
    }
}


// ************************************************************************* //
