/*--------------------------------*- C++ -*----------------------------------*\
  =========                 |
  \\      /  F ield         | OpenFOAM: The Open Source CFD Toolbox
   \\    /   O peration     | Website:  https://openfoam.org
    \\  /    A nd           | Version:  6
     \\/     M anipulation  |
\*---------------------------------------------------------------------------*/
FoamFile
{
    version     2.0;
    format      ascii;
    class       volVectorField;
    location    "0.2";
    object      U;
}
// * * * * * * * * * * * * * * * * * * * * * * * * * * * * * * * * * * * * * //

dimensions      [0 1 -1 0 0 0 0];

internalField   nonuniform List<vector> 
242
(
(-0.028262 -0.00247965 -5.15731e-22)
(-0.00135939 -0.0019166 6.25405e-20)
(-0.0018599 0.00125465 0)
(0.300457 0.000242221 0)
(0.0344072 0.106089 1.19498e-18)
(-0.00192956 -0.00130598 -6.25424e-20)
(-0.00131317 0.00183552 0)
(0.0975427 -0.0937362 0)
(0.308088 0.0128978 -1.1973e-18)
(-0.0260502 9.04269e-05 0)
(-0.0584391 0.0064375 5.16987e-20)
(-0.0389643 -0.021786 0)
(-0.0284824 0.017076 0)
(-0.0216777 -0.00149992 -2.34618e-21)
(-0.0403581 0.0123207 1.96931e-20)
(-0.0467556 0.0129859 0)
(-0.037191 -0.00714993 3.38443e-21)
(-0.0370616 -0.0120815 0)
(-0.062506 0.00942664 0)
(-0.0265903 0.021243 0)
(-0.0383652 -0.0269102 -4.85226e-20)
(-0.0190326 -0.000925117 3.67729e-21)
(-0.0439004 0.0434701 1.14348e-19)
(-0.0787888 -0.0153058 0)
(-0.0159715 0.00623267 0)
(-0.0161656 -0.0179728 -3.69742e-20)
(-0.0494508 0.0385647 -1.20262e-19)
(-0.0715049 -0.0197444 0)
(-0.0154683 0.00729386 -3.45463e-20)
(-0.018582 -0.0131126 6.93846e-20)
(-0.0490486 -0.0466503 0)
(-0.0753379 0.0246396 -1.37859e-19)
(-0.016961 -0.00613415 -1.2616e-20)
(-0.0159212 0.0175814 4.76967e-20)
(-0.0263229 0.00702737 0)
(0.410096 -0.0133119 5.34267e-20)
(-0.00394902 0.0220198 0)
(-0.00298336 -0.0330785 -1.02664e-19)
(-0.0108841 -0.000596242 0)
(-0.00982214 -0.048725 1.98196e-19)
(-0.0131366 -0.00141004 0)
(0.21086 -0.00641368 -1.33434e-19)
(-0.00707717 0.0232209 0)
(-0.035508 -0.0147257 5.3566e-20)
(-0.0221448 0.00143419 1.17204e-20)
(-0.0569861 -0.0363839 2.97189e-20)
(-0.0640094 0.028564 0)
(-0.0168236 -0.00698684 -1.56968e-20)
(-0.0181832 0.0124301 0)
(-0.0509878 0.019509 5.70627e-21)
(-0.0246704 0.00643731 3.88905e-22)
(-0.0300127 0.00971456 -1.6536e-20)
(-0.0417209 0.00825695 0)
(-0.0374443 -0.00162117 -8.29338e-21)
(-0.0240282 -0.0529415 1.37528e-19)
(-0.0143165 -0.00102126 1.01518e-20)
(-0.00619469 0.00777742 0)
(-0.00864568 0.0210384 0)
(0.448339 -0.0137042 0)
(-0.00727038 0.0707111 0)
(-0.00182516 -0.00886861 1.72772e-20)
(-0.00700073 0.00101056 -1.31162e-20)
(-0.00941043 -0.0820126 -2.62858e-19)
(-0.00730867 -0.00107959 0)
(0.429641 -0.00596086 0)
(-0.00183781 0.00856424 4.29352e-20)
(0.166762 0.00529054 0)
(-0.00753892 0.032781 0)
(-0.00841085 -0.0334208 0)
(-0.0134454 0.000380279 2.39318e-21)
(-0.0463268 -0.0716391 0)
(-0.0727203 0.0279846 2.35598e-19)
(-0.0136012 -0.00449353 3.23103e-20)
(-0.00969463 0.0146821 -7.30361e-20)
(-0.0665298 -0.00279148 -2.6555e-20)
(-0.0196603 0.0340137 1.5198e-19)
(-0.016183 -0.034912 -8.46194e-20)
(-0.0176112 -0.00064105 1.02827e-20)
(-0.0657569 -0.0150905 6.81239e-23)
(-0.043572 0.0281997 9.88091e-20)
(-0.0237848 -0.0152933 0)
(-0.0225606 0.00594423 -9.35143e-22)
(-0.0907525 -0.0579344 -1.80898e-19)
(-0.072477 0.0806172 -2.34618e-19)
(-0.00864873 -0.011347 0)
(-0.011011 0.005346 3.23886e-20)
(-0.0646094 -0.0244855 0)
(-0.0512012 0.0324988 -1.62443e-19)
(-0.0194903 -0.0117221 -2.30498e-20)
(-0.0191462 0.00623901 3.32163e-20)
(-0.0495026 -0.0088046 3.70765e-20)
(-0.0469919 -0.0114994 -4.19636e-20)
(-0.0282866 -0.00974183 3.13027e-21)
(-0.0275032 -0.00789846 5.71069e-22)
(0.550341 0.0058161 0)
(-0.00426526 0.0265007 6.84655e-20)
(-0.00162781 -0.0181686 -3.89737e-20)
(-0.00851137 -0.000142063 -7.30524e-21)
(-0.0690329 0.0149507 0)
(-0.0370386 -0.036559 -8.44962e-20)
(-0.0213807 0.0215542 -5.43563e-20)
(-0.0178055 -0.000151531 -8.55907e-21)
(0.211987 -0.0252759 -7.72222e-20)
(-0.0217076 0.112039 0)
(-0.00378562 -0.00925797 -6.95652e-20)
(-0.00780964 0.00246411 0)
(-0.0279623 -0.128829 3.84952e-19)
(-0.00815219 -0.00255332 9.73895e-21)
(0.194582 0.00768767 -1.06154e-19)
(-0.00363297 0.00894683 -6.30758e-20)
(-0.0399656 0.067993 0)
(-0.0821919 -0.0189196 0)
(-0.0130663 0.004199 0)
(-0.00994109 -0.0154215 0)
(-0.0845449 -0.0842935 0)
(-0.0832218 0.0561905 -2.90488e-19)
(-0.0115442 -0.00581546 -1.0728e-20)
(-0.0087199 0.0110517 2.03795e-20)
(-0.0014161 -0.00411493 -4.06592e-20)
(0.501279 0.00666289 0)
(-0.00362853 0.00108959 -4.1898e-20)
(-0.00295308 0.10884 0)
(-0.0043693 -0.130141 0)
(-0.00378594 -0.00113385 0)
(0.477653 0.00902449 -3.56949e-19)
(-0.00136435 0.00397117 3.38282e-20)
(-0.0127603 0.000822892 0)
(-0.0145355 0.0372614 -1.1483e-19)
(-0.0128302 -0.0301812 9.2236e-20)
(-0.0152848 0.000313341 -8.79187e-21)
(-0.0024578 -0.00439686 3.1485e-20)
(-0.00416146 0.00207882 5.39362e-20)
(0.138965 -0.0278187 0)
(-0.0408334 0.205063 0)
(-0.0229543 -0.236812 0)
(-0.00433234 -0.00217052 0)
(0.0855928 0.0427695 3.52482e-19)
(-0.00237715 0.00424863 -5.89703e-20)
(-0.0880965 -0.0492141 0)
(-0.0735982 0.0551187 0)
(-0.0116957 -0.00847027 0)
(-0.0114101 0.00827168 0)
(-0.0637194 -0.00153308 0)
(-0.0354884 0.0241201 0)
(-0.0268839 -0.0182121 -4.36798e-20)
(-0.022551 0.0031724 -3.69745e-21)
(-0.0732441 0.00342757 3.38607e-20)
(-0.0181735 0.031466 4.55931e-20)
(-0.0593306 0.0174575 0)
(-0.0103763 0.0236269 -5.53215e-20)
(-0.0231943 -0.0399501 1.72383e-21)
(-0.0182012 -0.00101338 -3.63471e-22)
(-0.03076 -0.0455796 -1.85025e-19)
(-0.0160334 -0.000630756 -2.10852e-20)
(0.259811 -0.0152225 0)
(-0.0196179 0.0734665 0)
(-0.0137767 0.0193068 0)
(-0.00700013 -0.0130295 0)
(-0.0276246 0.0629115 2.23855e-20)
(-0.0340227 -0.0674265 0)
(-0.00726742 0.0164953 0)
(-0.0132152 -0.00288082 0)
(0.174066 0.0158205 1.9374e-19)
(-0.0236896 -0.0822931 2.01793e-19)
(-0.00335234 0.0137705 6.2881e-20)
(-0.0106882 -0.00124143 1.91908e-20)
(-0.00306961 -0.0140988 2.90684e-20)
(-0.010239 0.00108104 1.71916e-20)
(-0.00717484 -0.0176453 0)
(-0.0129194 0.00272658 0)
(-0.065437 -0.00202526 3.03047e-21)
(-0.0348453 0.0261678 -9.05004e-20)
(-0.0260523 -0.0216713 7.21433e-20)
(-0.0189058 0.00154653 6.04679e-21)
(-0.0579141 0.00244313 1.14574e-21)
(-0.0577868 0.00772515 -2.07796e-20)
(-0.0347497 0.0171453 -1.20506e-20)
(-0.0299937 0.0164811 -1.58321e-20)
(-0.0413767 -0.0722266 2.68249e-19)
(-0.071353 0.104794 3.06924e-19)
(-0.0851868 -0.113143 4.56757e-20)
(-0.00544558 -0.00877384 1.20291e-20)
(-0.0534511 0.0578174 3.03868e-19)
(-0.00847413 0.00347678 -4.23458e-20)
(-0.00880968 -0.00363123 -8.94746e-21)
(-0.00527431 0.00849326 1.36651e-20)
(-0.0789235 -0.000540862 -5.27936e-21)
(-0.0736116 -0.00266512 -3.37774e-21)
(-0.0300539 0.0437606 1.22767e-19)
(-0.0324962 0.0353422 -2.01538e-20)
(-0.0213535 -0.0232129 4.32642e-20)
(-0.0156735 -0.0218675 -8.16982e-20)
(-0.0179398 0.0027399 1.48899e-20)
(-0.0175234 0.000892626 -3.21179e-20)
(-0.0627716 0.0160342 -4.30705e-20)
(-0.0604323 0.0285195 5.90484e-20)
(-0.0468608 -0.0266416 -4.66998e-20)
(-0.0561202 -0.0296908 4.06987e-20)
(-0.0241709 0.0134788 7.20143e-22)
(-0.0236508 -0.00472559 0)
(-0.0191906 0.0108728 0)
(-0.0204791 -0.00639971 1.03215e-20)
(-0.0796829 -0.0417362 -3.54149e-20)
(-0.0655663 0.0478876 0)
(-0.0150889 -0.00956394 -8.38306e-21)
(-0.0142627 0.00923492 1.03023e-20)
(-0.0631045 -0.0979693 4.08692e-20)
(-0.0975985 0.114288 0)
(-0.106511 -0.130386 -4.7941e-20)
(-0.0725185 0.0897207 1.17996e-19)
(-0.00511059 -0.00667281 1.15391e-20)
(-0.00706624 -0.00444782 0)
(-0.006829 0.00424463 -1.2278e-20)
(-0.004966 0.006413 1.31239e-20)
(-0.0420343 -0.00238836 1.61799e-21)
(-0.048239 -0.00294925 -1.0301e-21)
(0.277206 0.00819813 -1.38658e-20)
(-0.00868533 0.0452162 -1.43309e-19)
(0.0140367 0.000267169 0)
(-0.0196348 0.0537931 -1.58625e-19)
(-0.00389722 -0.0207628 7.30092e-21)
(-0.0116133 0.000531228 2.36283e-20)
(-0.00673712 -0.0216705 8.64309e-20)
(-0.0141455 0.000879341 0)
(0.647216 0.00810784 1.24526e-20)
(-0.00377444 0.0321194 0)
(-0.00101843 -0.00961364 4.09488e-20)
(-0.00596985 0.000220057 -1.24053e-20)
(-0.00488302 -0.038672 -3.22545e-19)
(-0.00678559 -0.00044564 -2.17851e-20)
(0.600245 0.0133728 -1.32733e-19)
(-0.00157223 0.0103487 -7.13798e-20)
(-0.0771065 0.0121754 0)
(-0.0337696 -0.0449456 7.8521e-20)
(-0.0153541 0.0212308 0)
(-0.0189224 -0.00318486 2.55134e-21)
(-0.0438904 0.000338859 6.63691e-21)
(-0.0240397 0.0472338 2.00091e-19)
(-0.010647 -0.0247391 -6.53044e-20)
(-0.0156231 0.00113206 0)
(-0.0330883 0.00173299 0)
(-0.0352473 0.00544954 1.91626e-20)
)
;

boundaryField
{
    frontAndBack
    {
        type            empty;
    }
    fixedWalls
    {
        type            noSlip;
    }
    movingWall
    {
        type            fixedValue;
        value           uniform (1 0 0);
    }
}


// ************************************************************************* //
