/*--------------------------------*- C++ -*----------------------------------*\
| =========                 |                                                 |
| \\      /  F ield         | OpenFOAM: The Open Source CFD Toolbox           |
|  \\    /   O peration     | Version:  5.0                                   |
|   \\  /    A nd           | Web:      www.OpenFOAM.org                      |
|    \\/     M anipulation  |                                                 |
\*---------------------------------------------------------------------------*/
FoamFile
{
    version     2.0;
    format      ascii;
    class       volScalarField;
    location    "2.5";
    object      k;
}
// * * * * * * * * * * * * * * * * * * * * * * * * * * * * * * * * * * * * * //

dimensions      [0 2 -2 0 0 0 0];

internalField   nonuniform List<scalar> 
400
(
7.12938e-09
5.73486e-08
7.4829e-08
6.10572e-08
3.08752e-08
1.9579e-08
5.35469e-08
3.27691e-07
1.35317e-06
3.27381e-06
5.37018e-06
7.20513e-06
9.1432e-06
1.13969e-05
1.2335e-05
1.2523e-05
1.07462e-05
6.12669e-06
2.51703e-06
1.03551e-06
1.07989e-07
1.33139e-06
1.6682e-06
1.16273e-06
4.65552e-07
3.97416e-07
1.26371e-06
4.45946e-06
1.35623e-05
3.54261e-05
6.96758e-05
0.000102357
0.0001224
0.000130216
0.000128077
0.000108088
8.45035e-05
4.81e-05
1.57649e-05
5.09781e-06
5.61344e-07
5.52353e-06
6.20264e-06
2.92317e-06
1.40365e-06
1.97934e-06
6.54798e-06
2.11224e-05
6.37551e-05
0.000152966
0.0002203
0.000255632
0.000296846
0.000320804
0.000332529
0.00033176
0.000255801
0.000171415
5.11531e-05
1.22211e-05
1.732e-06
1.41311e-05
1.42863e-05
5.24974e-06
3.15702e-06
5.90059e-06
1.92978e-05
6.01857e-05
0.000145862
0.000215305
0.000244688
0.000266319
0.000294402
0.000332809
0.00039724
0.000444724
0.000462684
0.000388575
0.000129594
2.05695e-05
4.00893e-06
3.14829e-05
3.02197e-05
1.02457e-05
7.3805e-06
1.55803e-05
4.33005e-05
0.000101554
0.000173109
0.000196725
0.000191999
0.000157562
0.000148566
0.000175325
0.000281987
0.000455356
0.00055185
0.000557183
0.000257665
2.93545e-05
6.15055e-06
5.51027e-05
5.74207e-05
1.97747e-05
1.17252e-05
2.1101e-05
5.33225e-05
0.00011342
0.00016085
0.000162507
0.000127504
9.90144e-05
9.36471e-05
0.000104071
0.000169936
0.000341169
0.000603644
0.000704461
0.000395216
3.79665e-05
7.03823e-06
7.97495e-05
9.55052e-05
4.26749e-05
1.80617e-05
2.10936e-05
5.05541e-05
0.000106361
0.00014869
0.000151964
0.000128676
9.72214e-05
8.46382e-05
8.72126e-05
0.000137377
0.000304017
0.000620774
0.000833954
0.000529918
4.6644e-05
6.83652e-06
0.000101123
0.000138616
9.80101e-05
3.37282e-05
2.30278e-05
3.85516e-05
8.25466e-05
0.000129829
0.000139316
0.000127362
0.000106477
8.44867e-05
8.6046e-05
0.000133643
0.000303568
0.000657439
0.000962513
0.000663116
5.52714e-05
6.18832e-06
0.000108899
0.000179895
0.000167264
8.84911e-05
3.81837e-05
3.60541e-05
5.23441e-05
8.14465e-05
9.87493e-05
9.71395e-05
8.75591e-05
8.34607e-05
0.000103965
0.000187764
0.000389403
0.000733902
0.00107106
0.0007841
6.38841e-05
5.01829e-06
0.000107603
0.000211831
0.000228814
0.000189363
0.000105818
5.62646e-05
5.53462e-05
6.65362e-05
7.76529e-05
8.36587e-05
8.66771e-05
0.00010129
0.000155929
0.000279974
0.000483095
0.000807055
0.0011584
0.000894862
7.27974e-05
4.49001e-06
0.000102317
0.000228408
0.000274743
0.000271858
0.00023526
0.00016175
0.000107089
9.42599e-05
9.78661e-05
0.000106464
0.000126603
0.000177028
0.000289651
0.000416276
0.00057843
0.000859187
0.00123586
0.000999682
8.22764e-05
3.99362e-06
9.15669e-05
0.000231681
0.000303802
0.000331893
0.000330723
0.000309146
0.000269724
0.000231401
0.000218891
0.000234669
0.000276897
0.000354432
0.000434818
0.000501628
0.000624465
0.000880132
0.0012889
0.0010876
9.24814e-05
3.52359e-06
8.0734e-05
0.000230328
0.000319664
0.000369345
0.000395335
0.000404672
0.000401277
0.000394114
0.000394231
0.000406174
0.000433413
0.000470722
0.00050433
0.000542222
0.000641558
0.000883726
0.0013208
0.0011569
0.000104097
3.10479e-06
7.1543e-05
0.000224816
0.000326212
0.000390868
0.000433667
0.00046176
0.000478196
0.000486937
0.000492957
0.000500658
0.000511435
0.000522448
0.000532428
0.000553887
0.000639445
0.000860858
0.00133179
0.00118627
0.000117765
2.97208e-06
6.90787e-05
0.000220416
0.00032994
0.000403953
0.000456494
0.000493935
0.000519052
0.000533407
0.000539159
0.000540269
0.000539959
0.000537317
0.000536325
0.000549783
0.000623908
0.000822758
0.00132739
0.00119054
0.000135335
3.16381e-06
7.13062e-05
0.000222458
0.000335979
0.000414375
0.000471342
0.000512449
0.00054042
0.000556372
0.000561968
0.000561245
0.000558246
0.00055334
0.000551343
0.00056345
0.000625438
0.000807109
0.00131349
0.00109298
0.000156133
4.09624e-06
7.81124e-05
0.000232256
0.000350154
0.000434404
0.000497579
0.000544449
0.000579054
0.000600948
0.000613295
0.000618966
0.000624848
0.000632108
0.000646335
0.000673134
0.000737585
0.000901935
0.00133038
0.00103232
0.00016602
7.16572e-06
9.75603e-05
0.000266662
0.000397924
0.000500419
0.000588599
0.000658921
0.00072447
0.000774501
0.0008258
0.000867847
0.000921933
0.000975671
0.00104943
0.00112279
0.00121803
0.00137991
0.00154939
0.00092412
0.000169241
1.56958e-05
0.000152252
0.000417675
0.00067172
0.000878369
0.00109872
0.00126473
0.00146723
0.00160922
0.00180037
0.00193467
0.00212625
0.00227122
0.0024742
0.00262247
0.00277353
0.00263543
0.00199744
0.000693667
0.000166313
7.71351e-06
2.6295e-05
7.10403e-05
0.000124904
0.000167942
0.000208703
0.000241133
0.000269259
0.000297271
0.0003159
0.000342229
0.000354516
0.000379822
0.000389822
0.000413131
0.000407401
0.00038153
0.000328781
0.000263616
0.000141229
)
;

boundaryField
{
    movingWall
    {
        type            kqRWallFunction;
        value           nonuniform List<scalar> 
20
(
7.71351e-06
2.6295e-05
7.10403e-05
0.000124904
0.000167942
0.000208703
0.000241133
0.000269259
0.000297271
0.0003159
0.000342229
0.000354516
0.000379822
0.000389822
0.000413131
0.000407401
0.00038153
0.000328781
0.000263616
0.000141229
)
;
    }
    fixedWalls
    {
        type            kqRWallFunction;
        value           nonuniform List<scalar> 
60
(
7.12938e-09
1.07989e-07
5.61344e-07
1.732e-06
4.00893e-06
6.15055e-06
7.03823e-06
6.83652e-06
6.18832e-06
5.01829e-06
4.49001e-06
3.99362e-06
3.52359e-06
3.10479e-06
2.97208e-06
3.16381e-06
4.09624e-06
7.16572e-06
1.56958e-05
7.71351e-06
1.03551e-06
5.09781e-06
1.22211e-05
2.05695e-05
2.93545e-05
3.79665e-05
4.6644e-05
5.52714e-05
6.38841e-05
7.27974e-05
8.22764e-05
9.24814e-05
0.000104097
0.000117765
0.000135335
0.000156133
0.00016602
0.000169241
0.000166313
0.000141229
7.12938e-09
5.73486e-08
7.4829e-08
6.10572e-08
3.08752e-08
1.9579e-08
5.35469e-08
3.27691e-07
1.35317e-06
3.27381e-06
5.37018e-06
7.20513e-06
9.1432e-06
1.13969e-05
1.2335e-05
1.2523e-05
1.07462e-05
6.12669e-06
2.51703e-06
1.03551e-06
)
;
    }
    frontAndBack
    {
        type            empty;
    }
}


// ************************************************************************* //
