/*--------------------------------*- C++ -*----------------------------------*\
| =========                 |                                                 |
| \\      /  F ield         | OpenFOAM: The Open Source CFD Toolbox           |
|  \\    /   O peration     | Version:  5.0                                   |
|   \\  /    A nd           | Web:      www.OpenFOAM.org                      |
|    \\/     M anipulation  |                                                 |
\*---------------------------------------------------------------------------*/
FoamFile
{
    version     2.0;
    format      ascii;
    class       volScalarField;
    location    "2.5";
    object      nut;
}
// * * * * * * * * * * * * * * * * * * * * * * * * * * * * * * * * * * * * * //

dimensions      [0 2 -1 0 0 0 0];

internalField   nonuniform List<scalar> 
400
(
5.56983e-11
4.48036e-10
5.84601e-10
4.77009e-10
2.41212e-10
1.52961e-10
4.18335e-10
2.56009e-09
1.05717e-08
2.55766e-08
4.19545e-08
5.62901e-08
7.14312e-08
8.90379e-08
9.63675e-08
9.78363e-08
8.39545e-08
4.78648e-08
1.96643e-08
8.08993e-09
8.43662e-10
3.9533e-08
5.79439e-08
3.96014e-08
1.33126e-08
7.85985e-09
1.78789e-08
5.7522e-08
1.79397e-07
6.15331e-07
1.62145e-06
2.85103e-06
3.76571e-06
4.07762e-06
3.59929e-06
2.77738e-06
1.81819e-06
8.1465e-07
1.88146e-07
3.98266e-08
4.3855e-09
2.33082e-07
3.35198e-07
1.36642e-07
4.77077e-08
4.58837e-08
1.32727e-07
4.2873e-07
1.684e-06
5.9695e-06
1.04198e-05
1.31105e-05
1.55591e-05
1.59637e-05
1.46739e-05
1.26057e-05
7.49611e-06
3.55593e-06
6.58211e-07
9.54772e-08
1.35313e-08
6.69544e-07
8.85299e-07
2.58755e-07
1.09539e-07
1.62966e-07
5.11729e-07
1.78993e-06
6.62701e-06
1.30482e-05
1.68318e-05
1.92427e-05
2.14964e-05
2.31506e-05
2.52639e-05
2.46605e-05
1.95305e-05
1.06716e-05
1.91829e-06
1.60699e-07
3.13198e-08
1.56954e-06
2.02208e-06
5.30048e-07
2.7268e-07
5.08642e-07
1.42019e-06
4.10883e-06
1.0731e-05
1.51569e-05
1.6176e-05
1.3648e-05
1.28717e-05
1.44105e-05
2.16761e-05
3.14031e-05
2.92511e-05
1.83437e-05
4.27252e-06
2.29332e-07
4.80511e-08
2.81074e-06
4.15622e-06
1.10771e-06
4.81256e-07
7.92247e-07
2.05242e-06
5.58054e-06
1.18387e-05
1.41898e-05
1.18174e-05
9.30443e-06
8.68359e-06
9.15739e-06
1.41318e-05
2.63157e-05
3.72522e-05
2.70711e-05
7.34369e-06
2.96613e-07
5.49861e-08
4.06607e-06
7.57988e-06
2.73253e-06
8.3391e-07
8.91564e-07
2.18952e-06
5.60766e-06
1.09324e-05
1.33355e-05
1.20674e-05
9.26607e-06
7.95004e-06
7.79344e-06
1.16524e-05
2.44796e-05
4.1427e-05
3.4614e-05
1.04809e-05
3.64406e-07
5.34103e-08
5.09372e-06
1.21057e-05
7.55431e-06
1.85924e-06
1.06846e-06
1.78114e-06
4.3282e-06
9.00452e-06
1.17081e-05
1.15565e-05
9.82939e-06
7.56376e-06
7.34336e-06
1.10599e-05
2.46763e-05
4.563e-05
4.17155e-05
1.37264e-05
4.31808e-07
4.83463e-08
5.30892e-06
1.71033e-05
1.55869e-05
6.27025e-06
2.10442e-06
1.79658e-06
2.7603e-06
4.94348e-06
7.11997e-06
7.69881e-06
7.13766e-06
6.74274e-06
8.39884e-06
1.53569e-05
3.16835e-05
5.19248e-05
4.72989e-05
1.65282e-05
4.99094e-07
3.92054e-08
5.01317e-06
2.13016e-05
2.50261e-05
1.73493e-05
7.60104e-06
3.38025e-06
3.11464e-06
3.99063e-06
5.07987e-06
5.89806e-06
6.41841e-06
7.77964e-06
1.23645e-05
2.3176e-05
4.05691e-05
5.82539e-05
5.16023e-05
1.89633e-05
5.6873e-07
3.50782e-08
4.3584e-06
2.29295e-05
3.35875e-05
3.07619e-05
2.24422e-05
1.28519e-05
7.50193e-06
6.18952e-06
6.62771e-06
7.59051e-06
9.53186e-06
1.41141e-05
2.47108e-05
3.83056e-05
5.26974e-05
6.40093e-05
5.52205e-05
2.11695e-05
6.42784e-07
3.12001e-08
3.5677e-06
2.27887e-05
3.97303e-05
4.35481e-05
3.98878e-05
3.24564e-05
2.52288e-05
1.99579e-05
1.82028e-05
1.98349e-05
2.44517e-05
3.35367e-05
4.37774e-05
5.21069e-05
6.15742e-05
6.75784e-05
5.7998e-05
2.30277e-05
7.22511e-07
2.7528e-08
2.94209e-06
2.16148e-05
4.28913e-05
5.35301e-05
5.56981e-05
5.30004e-05
4.82828e-05
4.44447e-05
4.29165e-05
4.42421e-05
4.80531e-05
5.39209e-05
5.92536e-05
6.34407e-05
6.85915e-05
7.09307e-05
6.04128e-05
2.48322e-05
8.13262e-07
2.42562e-08
2.58775e-06
2.04702e-05
4.40219e-05
6.00106e-05
6.74924e-05
7.00878e-05
6.91801e-05
6.74369e-05
6.6366e-05
6.67797e-05
6.84407e-05
7.04192e-05
7.16959e-05
7.25576e-05
7.4124e-05
7.30679e-05
6.25095e-05
2.63187e-05
9.20038e-07
2.32194e-08
2.55946e-06
2.01266e-05
4.47604e-05
6.40856e-05
7.59035e-05
8.20962e-05
8.49687e-05
8.52066e-05
8.45107e-05
8.37668e-05
8.32105e-05
8.21686e-05
8.04792e-05
7.84181e-05
7.69513e-05
7.31712e-05
6.38511e-05
2.69289e-05
1.0573e-06
2.47173e-08
2.88253e-06
2.08207e-05
4.61507e-05
6.65044e-05
8.01132e-05
8.81794e-05
9.26386e-05
9.42376e-05
9.37681e-05
9.23744e-05
9.04758e-05
8.7775e-05
8.45583e-05
8.12882e-05
7.80926e-05
7.27997e-05
6.38003e-05
2.47378e-05
1.21979e-06
3.20019e-08
3.38455e-06
2.3097e-05
4.79991e-05
6.80019e-05
8.13913e-05
8.9272e-05
9.38649e-05
9.53796e-05
9.48109e-05
9.30876e-05
9.07503e-05
8.8004e-05
8.49278e-05
8.20815e-05
7.82758e-05
7.18121e-05
6.05973e-05
2.21025e-05
1.29703e-06
5.59822e-08
4.72217e-06
2.57336e-05
4.77825e-05
6.26875e-05
7.22333e-05
7.74541e-05
8.05156e-05
8.16947e-05
8.18226e-05
8.12831e-05
8.05345e-05
7.98088e-05
7.90866e-05
7.82726e-05
7.63383e-05
7.13339e-05
5.3373e-05
1.6691e-05
1.3222e-06
1.22624e-07
6.26052e-06
2.26957e-05
3.47697e-05
4.20916e-05
4.8098e-05
5.17539e-05
5.54681e-05
5.77006e-05
6.02477e-05
6.19068e-05
6.37912e-05
6.53722e-05
6.69524e-05
6.81148e-05
6.85036e-05
5.94601e-05
3.57713e-05
8.33299e-06
1.29932e-06
6.02618e-08
2.0543e-07
5.55002e-07
9.75812e-07
1.31205e-06
1.6305e-06
1.88385e-06
2.10359e-06
2.32243e-06
2.46797e-06
2.67366e-06
2.76966e-06
2.96736e-06
3.04549e-06
3.22759e-06
3.18282e-06
2.9807e-06
2.5686e-06
2.0595e-06
1.10335e-06
)
;

boundaryField
{
    movingWall
    {
        type            nutkWallFunction;
        Cmu             0.09;
        kappa           0.41;
        E               9.8;
        value           uniform 0;
    }
    fixedWalls
    {
        type            nutkWallFunction;
        Cmu             0.09;
        kappa           0.41;
        E               9.8;
        value           uniform 0;
    }
    frontAndBack
    {
        type            empty;
    }
}


// ************************************************************************* //
