/*--------------------------------*- C++ -*----------------------------------*\
| =========                 |                                                 |
| \\      /  F ield         | OpenFOAM: The Open Source CFD Toolbox           |
|  \\    /   O peration     | Version:  5.0                                   |
|   \\  /    A nd           | Web:      www.OpenFOAM.org                      |
|    \\/     M anipulation  |                                                 |
\*---------------------------------------------------------------------------*/
FoamFile
{
    version     2.0;
    format      ascii;
    class       volScalarField;
    location    "2.5";
    object      omega;
}
// * * * * * * * * * * * * * * * * * * * * * * * * * * * * * * * * * * * * * //

dimensions      [0 0 -1 0 0 0 0];

internalField   nonuniform List<scalar> 
400
(
128
128
128
128
128
128
128
128
128
128
128
128
128
128
128
128
128
128
128
128
128
33.6778
28.79
29.3608
34.9709
50.5628
70.6815
77.5262
75.5998
57.5724
42.9713
35.9017
32.5039
31.9343
35.584
38.9174
46.4768
59.0437
83.791
128
128
23.6978
18.5044
21.393
29.4218
43.1381
49.3343
49.2674
37.8594
25.6246
21.1424
19.4983
19.0787
20.0959
22.6613
26.3182
34.1245
48.2052
77.7154
128
128
21.1055
16.1372
20.2885
28.8209
36.2075
37.711
33.6246
22.0103
16.5008
14.5372
13.84
13.6954
14.3758
15.7236
18.0339
23.6903
36.4122
67.557
128
128
20.0587
14.9448
19.3297
27.0666
30.6311
30.4892
24.716
16.1316
12.9793
11.8694
11.5447
11.5421
12.1664
13.0091
14.5004
18.8659
30.3746
60.3076
128
128
19.6043
13.8156
17.8519
24.3637
26.6343
25.9803
20.3241
13.5868
11.4524
10.7894
10.6416
10.7844
11.3646
12.0251
12.9645
16.2043
26.0226
53.8171
128
128
19.6134
12.5998
15.6174
21.6591
23.6591
23.0891
18.9671
13.6008
11.3955
10.6631
10.4922
10.6463
11.1905
11.7895
12.4192
14.9848
24.0929
50.5604
128
128
19.8524
11.4504
12.9741
18.1408
21.5524
21.6444
19.0718
14.4182
11.8991
11.0208
10.8325
11.1699
11.7175
12.0835
12.302
14.408
23.0733
48.3095
128
128
20.5126
10.5181
10.7311
14.1128
18.1445
20.0682
18.9632
16.4755
13.8693
12.6175
12.2672
12.3779
12.3785
12.2267
12.2904
14.1339
22.6446
47.4402
128
128
21.464
9.94438
9.14299
10.9148
13.9216
16.6451
17.7697
16.6731
15.2864
14.1841
13.5044
13.0199
12.611
12.0803
11.908
13.8541
22.4487
47.1891
128
128
23.4757
9.96131
8.17993
8.83749
10.483
12.5857
14.2748
15.2289
14.7662
14.0259
13.2821
12.5426
11.7216
10.8672
10.9765
13.4229
22.3804
47.2228
128
128
25.6655
10.1665
7.64659
7.62129
8.29133
9.52494
10.6911
11.5945
12.0251
11.8311
11.3242
10.5685
9.93248
9.6269
10.1417
13.0239
22.2232
47.2301
128
128
27.4411
10.656
7.45288
6.89976
7.09782
7.63527
8.31098
8.86752
9.186
9.18071
9.01946
8.72987
8.51139
8.5469
9.35332
12.459
21.863
46.5888
128
128
27.6468
10.9826
7.41023
6.51331
6.42542
6.58832
6.91234
7.22063
7.42785
7.49715
7.47268
7.41912
7.42621
7.63376
8.62669
11.7816
21.3054
45.0734
128
128
26.9895
10.9515
7.37124
6.30335
6.01413
6.01654
6.10875
6.26016
6.37977
6.44968
6.48907
6.5392
6.66415
7.01092
8.10783
11.2443
20.7889
44.2105
128
128
24.7373
10.6844
7.28005
6.23079
5.88346
5.81144
5.83363
5.90393
5.99317
6.07576
6.17011
6.30407
6.52027
6.93151
8.00893
11.0867
20.5875
44.1826
128
128
23.0791
10.0557
7.295
6.38812
6.11342
6.09876
6.16902
6.30059
6.46861
6.64929
6.88536
7.18271
7.61042
8.2008
9.4229
12.5596
21.9545
46.7062
128
128
20.6601
10.3624
8.32782
7.98276
8.14858
8.50724
8.99788
9.48043
10.0926
10.6768
11.4477
12.2251
13.2693
14.3446
15.9557
19.3444
29.0294
55.3663
128
128
24.3193
18.4033
19.3191
20.8681
22.8432
24.4374
26.4518
27.8892
29.8829
31.2513
33.3313
34.743
36.9546
38.5008
40.4873
44.3227
55.8391
83.2434
128
128
128
128
128
128
128
128
128
128
128
128
128
128
128
128
128
128
128
128
128
)
;

boundaryField
{
    movingWall
    {
        Cmu             0.09;
        kappa           0.41;
        E               9.8;
        beta1           0.075;
        blended         false;
        type            omegaWallFunction;
        value           nonuniform List<scalar> 
20
(
128
128
128
128
128
128
128
128
128
128
128
128
128
128
128
128
128
128
128
128
)
;
    }
    fixedWalls
    {
        Cmu             0.09;
        kappa           0.41;
        E               9.8;
        beta1           0.075;
        blended         false;
        type            omegaWallFunction;
        value           nonuniform List<scalar> 
60
(
128
128
128
128
128
128
128
128
128
128
128
128
128
128
128
128
128
128
128
128
128
128
128
128
128
128
128
128
128
128
128
128
128
128
128
128
128
128
128
128
128
128
128
128
128
128
128
128
128
128
128
128
128
128
128
128
128
128
128
128
)
;
    }
    frontAndBack
    {
        type            empty;
    }
}


// ************************************************************************* //
