/*--------------------------------*- C++ -*----------------------------------*\
| =========                 |                                                 |
| \\      /  F ield         | OpenFOAM: The Open Source CFD Toolbox           |
|  \\    /   O peration     | Version:  5.0                                   |
|   \\  /    A nd           | Web:      www.OpenFOAM.org                      |
|    \\/     M anipulation  |                                                 |
\*---------------------------------------------------------------------------*/
FoamFile
{
    version     2.0;
    format      ascii;
    class       volScalarField;
    location    "2.5";
    object      p;
}
// * * * * * * * * * * * * * * * * * * * * * * * * * * * * * * * * * * * * * //

dimensions      [0 2 -2 0 0 0 0];

internalField   nonuniform List<scalar> 
400
(
2.04725e-08
-2.64746e-05
-7.86626e-05
-0.00016889
-0.000282221
-0.00040423
-0.000467002
-0.000232725
-0.000225069
-0.00104897
-0.00210505
-0.00271488
-0.00264887
-0.00202981
-0.000858817
0.000875934
0.0030334
0.00536351
0.00718489
0.00775842
3.15041e-05
1.14587e-05
-4.61643e-05
-0.000147948
-0.000280389
-0.000407003
-0.000562848
-0.000800876
-0.00129131
-0.0021572
-0.00311125
-0.00357078
-0.0034267
-0.00278508
-0.00168584
-0.000144442
0.00181108
0.00404064
0.00604799
0.00706843
7.41345e-05
5.91319e-05
1.12423e-05
-9.21939e-05
-0.00026178
-0.000513319
-0.000941542
-0.00165755
-0.00262548
-0.00373539
-0.00467032
-0.00504753
-0.0047918
-0.00399231
-0.00291516
-0.00159909
-5.126e-06
0.00185994
0.00389101
0.00519134
8.41853e-05
7.2836e-05
2.90853e-05
-7.6578e-05
-0.000287747
-0.000729521
-0.00148316
-0.00267418
-0.00408771
-0.00537236
-0.0061051
-0.00632646
-0.00596155
-0.00510561
-0.00405259
-0.00291925
-0.00166978
-0.000211219
0.00149973
0.00278373
1.9099e-05
3.73047e-06
-4.74574e-05
-0.000166151
-0.00043457
-0.00107262
-0.00212792
-0.00364345
-0.0053225
-0.00663549
-0.00734191
-0.00751392
-0.00707777
-0.00614702
-0.0050595
-0.00401939
-0.0029995
-0.00188799
-0.000648568
0.000535243
-0.000134024
-0.000161387
-0.000232416
-0.000377226
-0.000694838
-0.00146301
-0.00272188
-0.00436428
-0.00616436
-0.00755131
-0.00829852
-0.00848115
-0.0080178
-0.00701059
-0.00584405
-0.00482723
-0.00395896
-0.00311031
-0.00224613
-0.00126
-0.000362199
-0.00040534
-0.000502898
-0.000677144
-0.00101455
-0.00179253
-0.00311382
-0.00475352
-0.00655859
-0.00800492
-0.00878987
-0.00897288
-0.00847576
-0.00741272
-0.00621201
-0.00525281
-0.00453146
-0.00388108
-0.00331413
-0.00251871
-0.000629259
-0.000684784
-0.000806521
-0.00100309
-0.00134573
-0.00202682
-0.00324616
-0.00476555
-0.00643963
-0.00785268
-0.00860183
-0.00876278
-0.00824471
-0.00721858
-0.00612069
-0.00529198
-0.00475885
-0.00426308
-0.00390824
-0.00327593
-0.000895101
-0.000956593
-0.00109023
-0.00129451
-0.00162306
-0.00217234
-0.00316397
-0.0044219
-0.00579681
-0.00696629
-0.00762621
-0.00774028
-0.00731271
-0.00650381
-0.00567097
-0.00505447
-0.00471361
-0.00431269
-0.00416005
-0.00362478
-0.00113871
-0.00119389
-0.00132219
-0.00151338
-0.00180222
-0.0022442
-0.00295169
-0.00386348
-0.00485034
-0.00571009
-0.00622566
-0.00632999
-0.00610731
-0.00562308
-0.00508787
-0.00469397
-0.00449902
-0.00414615
-0.00418141
-0.00369334
-0.00134075
-0.00138724
-0.00149345
-0.00165747
-0.00189788
-0.0022402
-0.00272592
-0.00334321
-0.00401529
-0.00461666
-0.00502252
-0.00517114
-0.00508581
-0.00483031
-0.0045321
-0.00429705
-0.00419727
-0.00384419
-0.00408423
-0.00355802
-0.00149741
-0.00153505
-0.0016149
-0.00174343
-0.00193469
-0.00219911
-0.00254679
-0.00297231
-0.00343654
-0.00387238
-0.00419241
-0.00433764
-0.00433205
-0.00422297
-0.00406289
-0.00391859
-0.00388154
-0.00347612
-0.00394012
-0.00326317
-0.00162193
-0.00164589
-0.00169703
-0.00178913
-0.0019363
-0.00214449
-0.00241315
-0.00273266
-0.00307718
-0.00340456
-0.00366028
-0.00380963
-0.00384805
-0.00378723
-0.00368914
-0.00358786
-0.00358738
-0.00308712
-0.00379678
-0.00280619
-0.00172132
-0.00172738
-0.0017489
-0.0018067
-0.00191631
-0.00208268
-0.00230118
-0.00255946
-0.00283554
-0.00309752
-0.0033088
-0.00344352
-0.0034934
-0.00346937
-0.00340373
-0.00331908
-0.003328
-0.00271491
-0.00364909
-0.00215486
-0.00180335
-0.00178538
-0.00177601
-0.00180271
-0.00188076
-0.00201515
-0.00219911
-0.00241864
-0.00265369
-0.00287827
-0.00306352
-0.00318966
-0.00324806
-0.00324384
-0.00319431
-0.00310974
-0.00309505
-0.00239344
-0.00341018
-0.00129567
-0.0018743
-0.00182022
-0.00178185
-0.00177978
-0.00183193
-0.00194204
-0.00210238
-0.00229793
-0.00250974
-0.00271606
-0.00289229
-0.00301463
-0.00307918
-0.00308721
-0.00304489
-0.00294624
-0.00287017
-0.00212063
-0.00293686
-0.000181284
-0.00195183
-0.00184058
-0.00176865
-0.00173713
-0.00176649
-0.00185714
-0.00200202
-0.00218583
-0.00238973
-0.00258855
-0.00276427
-0.00289514
-0.00297214
-0.00298667
-0.00293876
-0.00280277
-0.00261214
-0.00179098
-0.00204682
0.00146197
-0.00208134
-0.00184505
-0.00174635
-0.00167466
-0.00168091
-0.00175555
-0.00189079
-0.0020682
-0.00227183
-0.00247505
-0.00266138
-0.00280883
-0.0029042
-0.00292512
-0.00286481
-0.00265503
-0.00227751
-0.00116191
-0.000232585
0.00492665
-0.00240151
-0.00189126
-0.00171796
-0.00156168
-0.00153305
-0.00159308
-0.00172766
-0.00190617
-0.00212003
-0.00233263
-0.00253936
-0.00269878
-0.00281554
-0.00284217
-0.00278825
-0.00253731
-0.00192646
0.00017097
0.00417958
0.0143215
-0.0033032
-0.00107324
-0.000851779
-0.000869797
-0.000919952
-0.00102613
-0.00120105
-0.00143164
-0.00168846
-0.00195119
-0.00219071
-0.0023965
-0.00253612
-0.00259418
-0.00249007
-0.0021252
-0.000738936
0.00362986
0.0140731
0.0319542
)
;

boundaryField
{
    movingWall
    {
        type            zeroGradient;
    }
    fixedWalls
    {
        type            zeroGradient;
    }
    frontAndBack
    {
        type            empty;
    }
}


// ************************************************************************* //
