/*--------------------------------*- C++ -*----------------------------------*\
| =========                 |                                                 |
| \\      /  F ield         | OpenFOAM: The Open Source CFD Toolbox           |
|  \\    /   O peration     | Version:  5.0                                   |
|   \\  /    A nd           | Web:      www.OpenFOAM.org                      |
|    \\/     M anipulation  |                                                 |
\*---------------------------------------------------------------------------*/
FoamFile
{
    version     2.0;
    format      ascii;
    class       surfaceScalarField;
    location    "2.5";
    object      phi;
}
// * * * * * * * * * * * * * * * * * * * * * * * * * * * * * * * * * * * * * //

dimensions      [0 3 -1 0 0 0 0];

internalField   nonuniform List<scalar> 
760
(
7.66918e-09
-7.67116e-09
7.99893e-09
-3.29789e-10
2.22709e-08
-1.4272e-08
3.90019e-08
-1.6731e-08
2.68228e-09
3.63195e-08
-2.02239e-07
2.04921e-07
-7.80836e-07
5.78597e-07
-1.97587e-06
1.19503e-06
-3.61003e-06
1.63416e-06
-4.96032e-06
1.35029e-06
-5.76257e-06
8.02251e-07
-6.25444e-06
4.91875e-07
-6.40784e-06
1.53397e-07
-6.24937e-06
-1.58466e-07
-5.89274e-06
-3.56628e-07
-5.25078e-06
-6.41968e-07
-4.26573e-06
-9.85047e-07
-2.91374e-06
-1.35199e-06
-1.17417e-06
-1.73957e-06
-1.17417e-06
-9.90684e-08
9.13973e-08
-2.51968e-07
1.52569e-07
-4.23867e-07
1.57627e-07
-6.45302e-07
2.04704e-07
-1.05894e-06
4.49962e-07
-1.87429e-06
1.02026e-06
-3.18666e-06
1.89097e-06
-4.60188e-06
2.61025e-06
-5.53906e-06
2.57134e-06
-6.08532e-06
1.89655e-06
-6.54665e-06
1.26358e-06
-6.75174e-06
6.9696e-07
-6.63548e-06
3.71351e-08
-6.39141e-06
-4.0253e-07
-5.96171e-06
-7.8633e-07
-5.3568e-06
-1.24687e-06
-4.55062e-06
-1.79123e-06
-3.35845e-06
-2.54415e-06
-1.76299e-06
-3.33503e-06
-2.93716e-06
-2.04867e-07
2.96264e-07
-5.03251e-07
4.50953e-07
-8.5905e-07
5.13427e-07
-1.31947e-06
6.65124e-07
-2.01434e-06
1.14483e-06
-3.01739e-06
2.02332e-06
-4.11928e-06
2.99286e-06
-4.94064e-06
3.43161e-06
-5.45545e-06
3.08615e-06
-5.73346e-06
2.17456e-06
-5.82869e-06
1.35882e-06
-5.71506e-06
5.83327e-07
-5.47583e-06
-2.02096e-07
-5.10662e-06
-7.71739e-07
-4.66005e-06
-1.2329e-06
-4.20322e-06
-1.70371e-06
-3.64905e-06
-2.34541e-06
-2.89387e-06
-3.29933e-06
-1.72068e-06
-4.50823e-06
-4.65784e-06
-2.80627e-07
5.76891e-07
-6.74567e-07
8.44894e-07
-1.14607e-06
9.84934e-07
-1.71622e-06
1.23527e-06
-2.43987e-06
1.86848e-06
-3.33337e-06
2.91682e-06
-4.05783e-06
3.71731e-06
-4.49693e-06
3.87071e-06
-4.72076e-06
3.30998e-06
-4.80657e-06
2.26036e-06
-4.77844e-06
1.33069e-06
-4.63962e-06
4.4451e-07
-4.36255e-06
-4.79162e-07
-3.93194e-06
-1.20236e-06
-3.46658e-06
-1.69826e-06
-3.04693e-06
-2.12335e-06
-2.63785e-06
-2.75449e-06
-2.16518e-06
-3.772e-06
-1.36942e-06
-5.30398e-06
-6.02726e-06
-3.07353e-07
8.84244e-07
-7.25968e-07
1.26351e-06
-1.21654e-06
1.4755e-06
-1.77032e-06
1.78906e-06
-2.37288e-06
2.47104e-06
-2.98746e-06
3.5314e-06
-3.35773e-06
4.08759e-06
-3.5828e-06
4.09578e-06
-3.70099e-06
3.42817e-06
-3.78116e-06
2.34053e-06
-3.79146e-06
1.34098e-06
-3.66033e-06
3.13381e-07
-3.38564e-06
-7.53845e-07
-2.96576e-06
-1.62224e-06
-2.51792e-06
-2.1461e-06
-2.15559e-06
-2.48568e-06
-1.87319e-06
-3.03689e-06
-1.60806e-06
-4.03714e-06
-1.07463e-06
-5.83741e-06
-7.10188e-06
-2.82726e-07
1.16697e-06
-6.62159e-07
1.64294e-06
-1.09274e-06
1.90608e-06
-1.54561e-06
2.24193e-06
-1.95299e-06
2.87842e-06
-2.24605e-06
3.82446e-06
-2.37492e-06
4.21646e-06
-2.46173e-06
4.18258e-06
-2.55004e-06
3.51649e-06
-2.62795e-06
2.41844e-06
-2.62994e-06
1.34297e-06
-2.5206e-06
2.04043e-07
-2.31053e-06
-9.63915e-07
-1.9927e-06
-1.94007e-06
-1.65097e-06
-2.48783e-06
-1.38111e-06
-2.75554e-06
-1.19855e-06
-3.21946e-06
-1.02633e-06
-4.20935e-06
-7.97105e-07
-6.06664e-06
-7.89899e-06
-2.2026e-07
1.38723e-06
-5.17603e-07
1.94029e-06
-8.36806e-07
2.22529e-06
-1.14105e-06
2.54617e-06
-1.33961e-06
3.07698e-06
-1.36599e-06
3.85083e-06
-1.3465e-06
4.19697e-06
-1.28945e-06
4.12553e-06
-1.29002e-06
3.51706e-06
-1.32172e-06
2.45013e-06
-1.28206e-06
1.30331e-06
-1.18866e-06
1.10648e-07
-1.04552e-06
-1.10706e-06
-8.92225e-07
-2.09337e-06
-7.86921e-07
-2.59313e-06
-7.30709e-07
-2.81175e-06
-7.1566e-07
-3.2345e-06
-6.88434e-07
-4.23658e-06
-5.88578e-07
-6.1665e-06
-8.48757e-06
-1.40682e-07
1.52791e-06
-3.3906e-07
2.13867e-06
-5.32044e-07
2.41827e-06
-6.81382e-07
2.69551e-06
-6.9635e-07
3.09195e-06
-5.04378e-07
3.65886e-06
-3.07525e-07
4.00012e-06
-1.05551e-07
3.92356e-06
3.23234e-08
3.37918e-06
1.06785e-07
2.37567e-06
1.80738e-07
1.22936e-06
2.30554e-07
6.08313e-08
2.61861e-07
-1.13837e-06
1.84394e-07
-2.0159e-06
4.72132e-09
-2.41346e-06
-1.89468e-07
-2.61756e-06
-3.23879e-07
-3.10009e-06
-3.95079e-07
-4.16538e-06
-4.21623e-07
-6.13995e-06
-8.90919e-06
-5.99976e-08
1.58791e-06
-1.64938e-07
2.24361e-06
-2.46873e-07
2.5002e-06
-2.68071e-07
2.71671e-06
-1.5779e-07
2.98167e-06
1.65314e-07
3.33576e-06
5.66151e-07
3.59928e-06
9.6013e-07
3.52958e-06
1.26121e-06
3.07811e-06
1.4096e-06
2.22728e-06
1.46028e-06
1.17868e-06
1.41855e-06
1.02561e-07
1.23476e-06
-9.54569e-07
8.95494e-07
-1.67664e-06
5.02468e-07
-2.02043e-06
1.69988e-07
-2.28508e-06
-6.35392e-08
-2.86657e-06
-2.2462e-07
-4.0043e-06
-3.0659e-07
-6.05798e-06
-9.21578e-06
1.02685e-08
1.57764e-06
-2.06417e-08
2.27452e-06
-1.83661e-08
2.49793e-06
4.46771e-08
2.65367e-06
2.10562e-07
2.81579e-06
5.50708e-07
2.99561e-06
1.02888e-06
3.12111e-06
1.51564e-06
3.04283e-06
1.91298e-06
2.68076e-06
2.13596e-06
2.00429e-06
2.18225e-06
1.13239e-06
2.05932e-06
2.25496e-07
1.72149e-06
-6.16743e-07
1.2449e-06
-1.20004e-06
7.66625e-07
-1.54216e-06
3.91942e-07
-1.9104e-06
1.01937e-07
-2.57656e-06
-1.06796e-07
-3.79557e-06
-2.40141e-07
-5.92464e-06
-9.45592e-06
5.24933e-08
1.52515e-06
8.37922e-08
2.24322e-06
1.39935e-07
2.44179e-06
2.49627e-07
2.54397e-06
4.39805e-07
2.62561e-06
7.44255e-07
2.69116e-06
1.16014e-06
2.70523e-06
1.61278e-06
2.59019e-06
2.00664e-06
2.2869e-06
2.23562e-06
1.77532e-06
2.27019e-06
1.09782e-06
2.1137e-06
3.81986e-07
1.75597e-06
-2.59015e-07
1.29081e-06
-7.34878e-07
8.57894e-07
-1.10925e-06
4.98331e-07
-1.55084e-06
1.88996e-07
-2.26723e-06
-5.04093e-08
-3.55616e-06
-1.98951e-07
-5.7761e-06
-9.65487e-06
8.1221e-08
1.44393e-06
1.49189e-07
2.17525e-06
2.4179e-07
2.34919e-06
3.77841e-07
2.40792e-06
5.70882e-07
2.43257e-06
8.32841e-07
2.4292e-06
1.16099e-06
2.37707e-06
1.51566e-06
2.23553e-06
1.83238e-06
1.97018e-06
2.03901e-06
1.56869e-06
2.07031e-06
1.06652e-06
1.91937e-06
5.32929e-07
1.62231e-06
3.80494e-08
1.25998e-06
-3.72549e-07
8.97043e-07
-7.46313e-07
5.56291e-07
-1.21009e-06
2.4158e-07
-1.95251e-06
-2.30315e-08
-3.29155e-06
-1.86456e-07
-5.61267e-06
-9.84133e-06
9.07114e-08
1.35322e-06
1.80315e-07
2.08565e-06
2.95464e-07
2.23404e-06
4.45653e-07
2.25773e-06
6.35493e-07
2.24273e-06
8.66332e-07
2.19836e-06
1.13078e-06
2.11262e-06
1.40263e-06
1.96368e-06
1.63892e-06
1.73388e-06
1.78796e-06
1.41965e-06
1.81334e-06
1.04113e-06
1.7065e-06
6.3977e-07
1.48871e-06
2.55835e-07
1.21043e-06
-9.42659e-08
9.01627e-07
-4.37508e-07
5.8409e-07
-8.92548e-07
2.76856e-07
-1.64528e-06
-5.22908e-09
-3.00946e-06
-1.71144e-07
-5.44676e-06
-1.00125e-05
7.96685e-08
1.27355e-06
1.78604e-07
1.98671e-06
3.07876e-07
2.10477e-06
4.6688e-07
2.09873e-06
6.53527e-07
2.05608e-06
8.6385e-07
1.98804e-06
1.08784e-06
1.88863e-06
1.30589e-06
1.74564e-06
1.48895e-06
1.55081e-06
1.60445e-06
1.30416e-06
1.62892e-06
1.01666e-06
1.55577e-06
7.12915e-07
1.39686e-06
4.14751e-07
1.17392e-06
1.28669e-07
9.11342e-07
-1.74925e-07
6.2176e-07
-6.02967e-07
3.28494e-07
-1.35201e-06
2.227e-08
-2.70324e-06
-1.26968e-07
-5.29752e-06
-1.01394e-05
4.95259e-08
1.22402e-06
1.46149e-07
1.89009e-06
2.83871e-07
1.96704e-06
4.5032e-07
1.93228e-06
6.3653e-07
1.86987e-06
8.35552e-07
1.78902e-06
1.03711e-06
1.68707e-06
1.22562e-06
1.55713e-06
1.38099e-06
1.39544e-06
1.482e-06
1.20315e-06
1.51423e-06
9.84428e-07
1.47073e-06
7.56412e-07
1.35591e-06
5.29575e-07
1.18147e-06
3.03105e-07
9.60198e-07
4.6348e-08
7.01223e-07
-3.43992e-07
4.20432e-07
-1.07122e-06
1.06191e-07
-2.389e-06
8.84533e-09
-5.20018e-06
-1.01306e-05
-1.31559e-08
1.23718e-06
8.42076e-08
1.79272e-06
2.29043e-07
1.82221e-06
4.0264e-07
1.75868e-06
5.93409e-07
1.6791e-06
7.92432e-07
1.59e-06
9.88917e-07
1.49058e-06
1.17033e-06
1.37572e-06
1.32235e-06
1.24342e-06
1.43253e-06
1.09297e-06
1.48604e-06
9.30922e-07
1.4758e-06
7.66657e-07
1.40151e-06
6.03859e-07
1.27137e-06
4.33251e-07
1.09167e-06
2.26043e-07
8.69148e-07
-1.21469e-07
6.00352e-07
-8.02427e-07
3.05397e-07
-2.09404e-06
1.75486e-07
-5.07027e-06
-9.95511e-06
-9.34522e-08
1.33063e-06
-1.16329e-08
1.7109e-06
1.36249e-07
1.67433e-06
3.30381e-07
1.56455e-06
5.43089e-07
1.46639e-06
7.63309e-07
1.36978e-06
9.79644e-07
1.27425e-06
1.18222e-06
1.17315e-06
1.35721e-06
1.06843e-06
1.49309e-06
9.57087e-07
1.57718e-06
8.46829e-07
1.61113e-06
7.32704e-07
1.5927e-06
6.22293e-07
1.52251e-06
5.03442e-07
1.39649e-06
3.52059e-07
1.21896e-06
5.60624e-08
9.65513e-07
-5.4898e-07
6.884e-07
-1.81693e-06
4.81912e-07
-4.86378e-06
-9.47319e-06
-3.24681e-07
1.65531e-06
-1.95897e-07
1.58212e-06
4.30901e-08
1.43534e-06
3.12949e-07
1.29469e-06
5.92321e-07
1.18702e-06
8.73459e-07
1.08864e-06
1.14383e-06
1.00388e-06
1.39659e-06
9.20383e-07
1.61837e-06
8.46656e-07
1.80687e-06
7.68587e-07
1.95379e-06
6.99912e-07
2.06222e-06
6.24265e-07
2.1247e-06
5.59819e-07
2.14465e-06
4.83485e-07
2.09744e-06
3.99276e-07
1.98481e-06
1.68685e-07
1.74347e-06
-3.07638e-07
1.45218e-06
-1.52564e-06
1.02076e-06
-4.43236e-06
-8.45243e-06
-5.19683e-07
2.17499e-06
-1.67945e-07
1.23038e-06
2.87729e-07
9.79665e-07
7.27522e-07
8.54898e-07
1.14368e-06
7.70865e-07
1.54902e-06
6.83294e-07
1.92786e-06
6.25042e-07
2.29081e-06
5.57431e-07
2.61376e-06
5.23713e-07
2.91726e-06
4.65087e-07
3.17094e-06
4.46228e-07
3.4063e-06
3.88901e-07
3.58333e-06
3.82793e-07
3.74679e-06
3.20026e-07
3.83733e-06
3.08736e-07
3.85455e-06
1.51469e-07
3.69952e-06
-1.52612e-07
3.30565e-06
-1.13177e-06
2.19173e-06
-3.31844e-06
-6.2607e-06
2.17499e-06
3.40538e-06
4.38504e-06
5.23994e-06
6.0108e-06
6.6941e-06
7.31914e-06
7.87657e-06
8.40028e-06
8.86537e-06
9.3116e-06
9.7005e-06
1.00833e-05
1.04033e-05
1.07121e-05
1.08635e-05
1.07109e-05
9.57914e-06
6.2607e-06
)
;

boundaryField
{
    movingWall
    {
        type            calculated;
        value           uniform 0;
    }
    fixedWalls
    {
        type            calculated;
        value           uniform 0;
    }
    frontAndBack
    {
        type            empty;
        value           nonuniform 0();
    }
}


// ************************************************************************* //
