/*--------------------------------*- C++ -*----------------------------------*\
| =========                 |                                                 |
| \\      /  F ield         | OpenFOAM: The Open Source CFD Toolbox           |
|  \\    /   O peration     | Version:  5.0                                   |
|   \\  /    A nd           | Web:      www.OpenFOAM.org                      |
|    \\/     M anipulation  |                                                 |
\*---------------------------------------------------------------------------*/
FoamFile
{
    version     2.0;
    format      ascii;
    class       volVectorField;
    location    "2.5";
    object      U;
}
// * * * * * * * * * * * * * * * * * * * * * * * * * * * * * * * * * * * * * //

dimensions      [0 1 -1 0 0 0 0];

internalField   nonuniform List<vector> 
400
(
(0.000190743 -0.000547295 0)
(0.000122114 -0.000725191 0)
(0.000223471 -0.000975153 0)
(0.000642065 -0.00115452 0)
(0.00084231 -0.00118535 0)
(-0.000768583 -0.000976196 0)
(-0.00824667 -0.000135301 0)
(-0.0211697 0.00454033 0)
(-0.0530402 0.0166824 0)
(-0.0936521 0.0166867 0)
(-0.111866 0.00880529 0)
(-0.123068 0.00708732 0)
(-0.127818 0.00380027 0)
(-0.127818 -0.000312166 0)
(-0.121646 -0.00242009 0)
(-0.111626 -0.00555176 0)
(-0.0939503 -0.0104602 0)
(-0.0701148 -0.0121459 0)
(-0.040468 -0.0150108 0)
(-0.0102457 -0.00390384 0)
(-0.000538469 0.000284035 0)
(-0.00328648 0.000725947 0)
(-0.00655124 0.000442195 0)
(-0.0102894 0.000466649 0)
(-0.0158122 0.00266393 0)
(-0.0263909 0.00970939 0)
(-0.0480507 0.0245601 0)
(-0.0780231 0.041971 0)
(-0.102668 0.0439967 0)
(-0.12028 0.0334405 0)
(-0.128837 0.0207251 0)
(-0.136692 0.0112131 0)
(-0.134639 0.00157401 0)
(-0.130361 -0.00694431 0)
(-0.123913 -0.0134741 0)
(-0.112692 -0.0226699 0)
(-0.0987218 -0.0322143 0)
(-0.0775301 -0.0451499 0)
(-0.050255 -0.0555989 0)
(-0.0194969 -0.0398482 0)
(-0.00134119 0.00362729 0)
(-0.00665485 0.00573024 0)
(-0.0130921 0.00628784 0)
(-0.0208693 0.00823386 0)
(-0.0315718 0.0159402 0)
(-0.0478974 0.0315367 0)
(-0.0709749 0.0506327 0)
(-0.0923103 0.0620169 0)
(-0.106141 0.0571674 0)
(-0.115199 0.0394839 0)
(-0.118184 0.0262443 0)
(-0.117525 0.0134939 0)
(-0.111318 -0.000929193 0)
(-0.104997 -0.0111358 0)
(-0.0969167 -0.0205416 0)
(-0.0885883 -0.0306705 0)
(-0.0790723 -0.0441765 0)
(-0.0647997 -0.0631174 0)
(-0.0443134 -0.0844537 0)
(-0.020397 -0.0832433 0)
(-0.00197966 0.0086269 0)
(-0.00903242 0.0128205 0)
(-0.0175176 0.0148472 0)
(-0.0276389 0.0190946 0)
(-0.0397497 0.0307513 0)
(-0.0560738 0.0502302 0)
(-0.0753096 0.068618 0)
(-0.0868418 0.0730075 0)
(-0.0960928 0.0631785 0)
(-0.0976426 0.0441323 0)
(-0.0967771 0.0265192 0)
(-0.0954685 0.0100418 0)
(-0.0899402 -0.00664351 0)
(-0.0818315 -0.0197101 0)
(-0.0728779 -0.0295026 0)
(-0.0650449 -0.0387064 0)
(-0.0576767 -0.0518193 0)
(-0.0485043 -0.072473 0)
(-0.0336023 -0.101232 0)
(-0.0169583 -0.109789 0)
(-0.00221883 0.0145485 0)
(-0.00991108 0.0210158 0)
(-0.0187551 0.0245672 0)
(-0.0290082 0.0303625 0)
(-0.0397303 0.0439416 0)
(-0.053612 0.0653875 0)
(-0.0645874 0.0784431 0)
(-0.0709981 0.0793473 0)
(-0.0764852 0.0666036 0)
(-0.0758883 0.0451889 0)
(-0.0766329 0.0257965 0)
(-0.0758601 0.00672251 0)
(-0.0700838 -0.0133456 0)
(-0.0622275 -0.0296451 0)
(-0.0534523 -0.0398361 0)
(-0.0463216 -0.0475243 0)
(-0.040767 -0.0594129 0)
(-0.0345879 -0.079894 0)
(-0.0280352 -0.114598 0)
(-0.0104913 -0.135431 0)
(-0.00198066 0.0204878 0)
(-0.00923643 0.0290696 0)
(-0.0170108 0.0338933 0)
(-0.025776 0.0404795 0)
(-0.0337762 0.0539469 0)
(-0.042758 0.0746016 0)
(-0.0471456 0.0834749 0)
(-0.0492255 0.0829971 0)
(-0.0530169 0.0690211 0)
(-0.0525858 0.0468116 0)
(-0.0533746 0.0259909 0)
(-0.0526901 0.00449285 0)
(-0.0478255 -0.018585 0)
(-0.0414998 -0.0377899 0)
(-0.0350594 -0.0483714 0)
(-0.0298325 -0.0534335 0)
(-0.0263837 -0.0628239 0)
(-0.0220228 -0.0821814 0)
(-0.0200397 -0.118834 0)
(-0.00799485 -0.150342 0)
(-0.00136112 0.0256034 0)
(-0.00737754 0.035939 0)
(-0.0132443 0.0415407 0)
(-0.0194552 0.0481737 0)
(-0.024348 0.0599502 0)
(-0.0273906 0.0776926 0)
(-0.0281214 0.0846405 0)
(-0.0270335 0.0836858 0)
(-0.0274689 0.0707673 0)
(-0.0268607 0.0483642 0)
(-0.0266296 0.0257455 0)
(-0.025323 0.00258612 0)
(-0.0217992 -0.0215347 0)
(-0.0175525 -0.0415237 0)
(-0.015742 -0.0520032 0)
(-0.0150124 -0.0567485 0)
(-0.0153239 -0.0652588 0)
(-0.0133081 -0.085141 0)
(-0.0158866 -0.122861 0)
(-0.0044617 -0.164756 0)
(-0.000575996 0.0292618 0)
(-0.00494328 0.0410158 0)
(-0.00866379 0.0467859 0)
(-0.0120592 0.0528265 0)
(-0.0140491 0.0620503 0)
(-0.0121465 0.0756229 0)
(-0.00878564 0.0833703 0)
(-0.0043562 0.0821406 0)
(-0.000715058 0.0708043 0)
(0.0013879 0.0497855 0)
(0.00268778 0.0260855 0)
(0.00407703 0.00144457 0)
(0.00582394 -0.022566 0)
(0.00616386 -0.0407602 0)
(0.00240521 -0.0497277 0)
(-0.00209357 -0.0538718 0)
(-0.00630857 -0.0630123 0)
(-0.00609986 -0.0833862 0)
(-0.0112609 -0.121941 0)
(-0.00302141 -0.172384 0)
(0.000126224 0.0314305 0)
(-0.00243303 0.0440975 0)
(-0.00424967 0.0495795 0)
(-0.00529231 0.0545748 0)
(-0.00487509 0.0611481 0)
(-0.000630186 0.070279 0)
(0.0067813 0.0773516 0)
(0.0147365 0.0768359 0)
(0.0216478 0.0676292 0)
(0.0262468 0.0491318 0)
(0.0285661 0.0261736 0)
(0.0292097 0.00190346 0)
(0.0285362 -0.0202243 0)
(0.0232471 -0.0364781 0)
(0.0145667 -0.0439882 0)
(0.00636814 -0.0488028 0)
(-0.000556956 -0.059659 0)
(-0.00144531 -0.0817527 0)
(-0.0090602 -0.121749 0)
(-0.000959914 -0.180902 0)
(0.000755254 0.0317968 0)
(-0.000290819 0.0454631 0)
(-0.000596207 0.0503388 0)
(-3.65372e-05 0.0540897 0)
(0.00200948 0.058292 0)
(0.00694146 0.0634575 0)
(0.0152217 0.0675612 0)
(0.0249847 0.0667869 0)
(0.0339298 0.0591944 0)
(0.0403142 0.0440785 0)
(0.0434124 0.0245709 0)
(0.0436463 0.00351374 0)
(0.039183 -0.0155509 0)
(0.0314008 -0.0282321 0)
(0.0202132 -0.0349392 0)
(0.0112762 -0.0414654 0)
(0.00303294 -0.0541136 0)
(0.0020219 -0.0775786 0)
(-0.00760164 -0.11878 0)
(9.30583e-05 -0.185327 0)
(0.000932921 0.0312572 0)
(0.00125699 0.0454362 0)
(0.00206324 0.049676 0)
(0.00365774 0.0522361 0)
(0.00651619 0.0545825 0)
(0.0113362 0.056799 0)
(0.0185259 0.0579018 0)
(0.0273777 0.0558645 0)
(0.0360506 0.0492221 0)
(0.0428124 0.0374499 0)
(0.0454788 0.0218233 0)
(0.0449348 0.00595026 0)
(0.0400756 -0.00852881 0)
(0.0312818 -0.0189745 0)
(0.0214292 -0.0261898 0)
(0.0136141 -0.0344574 0)
(0.00480751 -0.0483694 0)
(0.0043627 -0.0735266 0)
(-0.00750513 -0.116985 0)
(0.00172611 -0.19152 0)
(0.00105936 0.0298748 0)
(0.00224745 0.0444003 0)
(0.003787 0.0481043 0)
(0.00600115 0.0496701 0)
(0.00920473 0.0506441 0)
(0.0136919 0.0510769 0)
(0.0196069 0.0503846 0)
(0.0265819 0.0474903 0)
(0.0335156 0.0415949 0)
(0.0390116 0.0324641 0)
(0.0418414 0.0210605 0)
(0.0408645 0.00877487 0)
(0.0361214 -0.00201863 0)
(0.0293299 -0.0108155 0)
(0.0216584 -0.0183377 0)
(0.01492 -0.0274524 0)
(0.00559301 -0.0420899 0)
(0.00626657 -0.0683611 0)
(-0.00815524 -0.113535 0)
(0.00321468 -0.194765 0)
(0.00100735 0.028039 0)
(0.00267645 0.0427528 0)
(0.00467334 0.0459657 0)
(0.00726834 0.0467492 0)
(0.0106103 0.0467696 0)
(0.0148026 0.0461711 0)
(0.0197925 0.0446159 0)
(0.0252743 0.041535 0)
(0.0305379 0.0364681 0)
(0.0346247 0.0293433 0)
(0.036545 0.0207132 0)
(0.035841 0.0116818 0)
(0.0325053 0.00317389 0)
(0.0274322 -0.00442967 0)
(0.0212844 -0.0116631 0)
(0.0154749 -0.0209063 0)
(0.00587535 -0.0359424 0)
(0.00797059 -0.0629877 0)
(-0.00957865 -0.110951 0)
(0.0056866 -0.199677 0)
(0.000751871 0.0262863 0)
(0.0025312 0.0407828 0)
(0.00479977 0.043463 0)
(0.00764937 0.0436182 0)
(0.0110661 0.0429906 0)
(0.0150436 0.0417905 0)
(0.0194375 0.0398507 0)
(0.0239491 0.0368544 0)
(0.0280929 0.0325772 0)
(0.0312352 0.0270082 0)
(0.0327467 0.0204547 0)
(0.0323176 0.0135397 0)
(0.0299642 0.00682423 0)
(0.0260914 0.00053831 0)
(0.0210518 -0.00596799 0)
(0.0160893 -0.0148625 0)
(0.00650778 -0.0299778 0)
(0.0100313 -0.0571238 0)
(-0.0110362 -0.107806 0)
(0.00903787 -0.201887 0)
(0.000280047 0.0248599 0)
(0.00184264 0.038766 0)
(0.00421061 0.0407883 0)
(0.0072742 0.0403579 0)
(0.010776 0.0392721 0)
(0.0146425 0.0377369 0)
(0.018701 0.035676 0)
(0.0226762 0.0329124 0)
(0.0262064 0.0293433 0)
(0.0288702 0.0249914 0)
(0.0302825 0.0200245 0)
(0.0302159 0.0147709 0)
(0.0286269 0.00956829 0)
(0.0257082 0.00447579 0)
(0.0216164 -0.00113405 0)
(0.0174257 -0.00937995 0)
(0.0081752 -0.0242849 0)
(0.0126538 -0.051073 0)
(-0.0115114 -0.105605 0)
(0.0144089 -0.204949 0)
(-0.000832466 0.0245128 0)
(0.000444824 0.0370228 0)
(0.00305755 0.037929 0)
(0.00624715 0.0369217 0)
(0.00988389 0.0354949 0)
(0.0138056 0.0337825 0)
(0.0178091 0.0317546 0)
(0.0216501 0.0293115 0)
(0.0250492 0.0263997 0)
(0.0277129 0.0230114 0)
(0.0294572 0.0191797 0)
(0.0299487 0.0153441 0)
(0.0290823 0.0115228 0)
(0.0270092 0.00756628 0)
(0.0238025 0.00290715 0)
(0.0203549 -0.00454113 0)
(0.0119171 -0.018854 0)
(0.0165953 -0.0453012 0)
(-0.00973264 -0.104345 0)
(0.0213843 -0.205607 0)
(-0.0017132 0.0256805 0)
(-0.00152711 0.034768 0)
(0.00103494 0.035126 0)
(0.00455365 0.0334136 0)
(0.00865955 0.0316376 0)
(0.0130232 0.0297835 0)
(0.0174231 0.0278234 0)
(0.0216623 0.0256362 0)
(0.0254966 0.0232214 0)
(0.028695 0.020599 0)
(0.0309142 0.0179698 0)
(0.032117 0.0152093 0)
(0.0322708 0.0125 0)
(0.0314275 0.0096496 0)
(0.0293072 0.00605768 0)
(0.026776 -0.000439125 0)
(0.019551 -0.0135281 0)
(0.023739 -0.0400599 0)
(-0.00382138 -0.103194 0)
(0.031264 -0.206172 0)
(-0.00476744 0.0289401 0)
(-0.00682791 0.0343777 0)
(-0.00156062 0.0317522 0)
(0.00344387 0.0288912 0)
(0.00898826 0.0267219 0)
(0.0146572 0.0247335 0)
(0.0201713 0.0229078 0)
(0.0254894 0.0210691 0)
(0.0302206 0.0193119 0)
(0.0344186 0.017446 0)
(0.0377253 0.0156692 0)
(0.0403437 0.0138034 0)
(0.0419935 0.01207 0)
(0.0429394 0.0101556 0)
(0.0424042 0.00781628 0)
(0.0413714 0.00281561 0)
(0.035341 -0.00807038 0)
(0.0382485 -0.0348865 0)
(0.00961448 -0.10157 0)
(0.0446565 -0.198331 0)
(-0.00869399 0.0398928 0)
(-0.00952298 0.0245559 0)
(0.00189345 0.0217746 0)
(0.0101892 0.0202499 0)
(0.0185904 0.0187202 0)
(0.0270421 0.0170932 0)
(0.0346822 0.0157107 0)
(0.0423809 0.0144214 0)
(0.0489697 0.0133531 0)
(0.0555547 0.0122616 0)
(0.0608127 0.0113276 0)
(0.0660646 0.010331 0)
(0.0698007 0.00950045 0)
(0.0735974 0.00848157 0)
(0.0754253 0.00727663 0)
(0.077085 0.00311555 0)
(0.0720798 -0.00606063 0)
(0.0732175 -0.0312174 0)
(0.0446117 -0.0894307 0)
(0.0689521 -0.15762 0)
(0.045983 0.0409311 0)
(0.0524586 0.0300758 0)
(0.0752424 0.0225548 0)
(0.0975413 0.0180687 0)
(0.11252 0.0156793 0)
(0.128278 0.0134123 0)
(0.139333 0.0121887 0)
(0.152948 0.0104435 0)
(0.161769 0.00995213 0)
(0.173711 0.0084133 0)
(0.180711 0.00846899 0)
(0.191069 0.0069106 0)
(0.196543 0.00743586 0)
(0.205121 0.00571844 0)
(0.209041 0.00662026 0)
(0.215195 0.00412059 0)
(0.213942 0.00206021 0)
(0.204959 -0.00465435 0)
(0.169885 -0.0139694 0)
(0.133168 -0.0373987 0)
)
;

boundaryField
{
    movingWall
    {
        type            fixedValue;
        value           uniform (1 0 0);
    }
    fixedWalls
    {
        type            noSlip;
    }
    frontAndBack
    {
        type            empty;
    }
}


// ************************************************************************* //
