/*--------------------------------*- C++ -*----------------------------------*\
  =========                 |
  \\      /  F ield         | OpenFOAM: The Open Source CFD Toolbox
   \\    /   O peration     | Website:  https://openfoam.org
    \\  /    A nd           | Version:  6
     \\/     M anipulation  |
\*---------------------------------------------------------------------------*/
FoamFile
{
    version     2.0;
    format      ascii;
    class       volScalarField;
    location    "0.1";
    object      p;
}
// * * * * * * * * * * * * * * * * * * * * * * * * * * * * * * * * * * * * * //

dimensions      [0 2 -2 0 0 0 0];

internalField   nonuniform List<scalar> 
400
(
-4.67734e-06
-0.00284552
-0.00815332
-0.0142799
-0.0192577
-0.0212534
-0.0187036
-0.0104772
0.00390842
0.0239776
0.0028201
-4.25397e-05
-0.00425062
-0.00882486
-0.0124671
-0.0137308
-0.0112798
-0.0040913
0.00832429
0.0256269
0.0082302
0.00408627
-0.000287415
-0.00430907
-0.00728231
-0.00812313
-0.00575324
0.000683383
0.0116244
0.0268131
0.0148989
0.00874697
0.00327543
-0.00106599
-0.00404786
-0.0048566
-0.00262504
0.00333828
0.0133945
0.0273241
0.0212619
0.0128353
0.00580314
0.000666699
-0.00270612
-0.00370263
-0.00161362
0.00411277
0.0137609
0.0271266
0.0257445
0.0149181
0.00605354
-0.000160052
-0.00412395
-0.00536809
-0.00329187
0.00254659
0.0123625
0.0259532
0.0265719
0.0132095
0.00232132
-0.0051162
-0.00971012
-0.0110887
-0.00871813
-0.00223735
0.00851251
0.0233271
0.0214619
0.00533379
-0.00774248
-0.0164173
-0.0214803
-0.0226413
-0.0194145
-0.0115042
0.00120392
0.0185157
0.00714565
-0.0121261
-0.027553
-0.0373092
-0.0423904
-0.0426188
-0.0375838
-0.0270762
-0.0110263
0.0104156
-0.0214115
-0.0444276
-0.0623275
-0.0726815
-0.0768034
-0.074752
-0.0663128
-0.0514547
-0.0301752
-0.00250931
0.0469339
0.0675938
0.0826966
0.0914001
0.0940573
0.0918792
0.0866076
0.0802435
0.0748497
0.072056
0.0454385
0.0632423
0.0762631
0.0838555
0.0864039
0.0849988
0.0811219
0.0763546
0.0720796
0.0692767
0.0442211
0.0598918
0.0714174
0.0782497
0.0807212
0.0797464
0.0765398
0.072318
0.0678752
0.0638115
0.0433285
0.0578053
0.0685382
0.0749766
0.0773494
0.0763991
0.0731397
0.0685416
0.0629636
0.0568941
0.0425498
0.0566155
0.0671574
0.0735513
0.0758921
0.0747671
0.0710528
0.0655611
0.058339
0.0499578
0.0417183
0.0562773
0.0673773
0.0742489
0.0768167
0.075522
0.0711555
0.0644465
0.0552416
0.0443528
0.0405942
0.0568146
0.0695031
0.0776619
0.0809926
0.079781
0.0747668
0.0666564
0.0551784
0.0415189
0.0387578
0.0581715
0.0738897
0.0845846
0.0896455
0.0891493
0.0837776
0.0742383
0.0601814
0.0433079
0.0355115
0.0601485
0.0809395
0.0961028
0.104562
0.106042
0.101077
0.0903288
0.0733522
0.0525554
0.0298213
0.0623553
0.0911053
0.113707
0.128377
0.1342
0.131299
0.1201
0.0999213
0.0741381
-0.0703824
-0.0979979
-0.118211
-0.127945
-0.129163
-0.122463
-0.108099
-0.0864137
-0.0575271
-0.0212409
-0.143285
-0.17649
-0.198151
-0.204705
-0.199579
-0.18455
-0.160838
-0.129458
-0.0907153
-0.0440096
-0.243058
-0.2829
-0.303667
-0.302083
-0.284864
-0.25618
-0.218888
-0.174936
-0.124752
-0.0670313
-0.378811
-0.425864
-0.439916
-0.420822
-0.382261
-0.332502
-0.276582
-0.217303
-0.154801
-0.0865526
-0.569747
-0.620468
-0.613393
-0.559761
-0.48613
-0.406153
-0.326664
-0.250365
-0.17607
-0.099225
-0.856434
-0.891194
-0.829877
-0.713411
-0.586722
-0.467293
-0.361194
-0.268573
-0.18512
-0.103264
-1.31974
-1.27183
-1.08992
-0.870027
-0.670289
-0.504862
-0.373225
-0.268527
-0.18094
-0.0990877
-2.13981
-1.79911
-1.36963
-0.999079
-0.712937
-0.504306
-0.356086
-0.248527
-0.164407
-0.0887464
-3.77498
-2.47516
-1.5466
-1.00376
-0.659058
-0.438962
-0.299168
-0.205676
-0.136037
-0.0742618
-6.53312
-3.0767
-1.42463
-0.793621
-0.482644
-0.309643
-0.210356
-0.147695
-0.101472
-0.058862
0.0209416
0.0644215
0.104706
0.138801
0.163928
0.178065
0.180405
0.170667
0.147488
0.11538
0.00972774
0.0662884
0.121125
0.170841
0.211519
0.239492
0.252218
0.247747
0.222965
0.183358
-0.00162839
0.068395
0.139241
0.207739
0.269112
0.317757
0.348448
0.355952
0.333113
0.285359
-0.010688
0.0717048
0.158557
0.247908
0.334991
0.412606
0.472213
0.50323
0.49021
0.434983
-0.0155425
0.0765604
0.177651
0.288176
0.404966
0.520758
0.62436
0.698396
0.712826
0.656477
-0.015769
0.0819448
0.193621
0.323245
0.471439
0.634075
0.800624
0.948603
1.02811
0.996105
-0.0127413
0.0854166
0.202225
0.345921
0.523406
0.738717
0.988909
1.25406
1.47037
1.53985
-0.00918604
0.0833161
0.197681
0.346001
0.543175
0.807518
1.1549
1.58757
2.076
2.47299
-0.00805749
0.0713593
0.172672
0.308927
0.500327
0.780431
1.19625
1.82189
2.84569
4.25316
-0.0101019
0.0512722
0.13125
0.23955
0.393551
0.629317
1.01807
1.75245
3.52709
7.10585
)
;

boundaryField
{
    movingWall
    {
        type            zeroGradient;
    }
    fixedWalls
    {
        type            zeroGradient;
    }
    frontAndBack
    {
        type            empty;
    }
}


// ************************************************************************* //
