/*--------------------------------*- C++ -*----------------------------------*\
  =========                 |
  \\      /  F ield         | OpenFOAM: The Open Source CFD Toolbox
   \\    /   O peration     | Website:  https://openfoam.org
    \\  /    A nd           | Version:  6
     \\/     M anipulation  |
\*---------------------------------------------------------------------------*/
FoamFile
{
    version     2.0;
    format      ascii;
    class       surfaceScalarField;
    location    "0.1";
    object      phi;
}
// * * * * * * * * * * * * * * * * * * * * * * * * * * * * * * * * * * * * * //

dimensions      [0 3 -1 0 0 0 0];

internalField   nonuniform List<scalar> 
760
(
6.48748e-09
-6.46884e-09
4.16129e-09
2.32597e-09
-1.62926e-08
2.04544e-08
-5.70798e-08
4.07876e-08
-1.16336e-07
5.92559e-08
-1.88988e-07
7.26526e-08
-2.67062e-07
7.80738e-08
-3.39958e-07
7.28957e-08
-3.94864e-07
5.49055e-08
2.27711e-08
-4.17635e-07
-1.90192e-09
-4.56657e-09
-3.17831e-08
3.22072e-08
-1.05489e-07
9.41589e-08
-2.29266e-07
1.64565e-07
-4.00288e-07
2.30279e-07
-6.06596e-07
2.78961e-07
-8.27246e-07
2.98723e-07
-1.03296e-06
2.78612e-07
-1.18758e-06
2.09521e-07
8.6239e-08
-1.25105e-06
-1.96659e-08
1.50992e-08
-9.4061e-08
1.06604e-07
-2.38413e-07
2.38511e-07
-4.59431e-07
3.85583e-07
-7.52249e-07
5.23096e-07
-1.09842e-06
6.25129e-07
-1.46497e-06
6.65279e-07
-1.80491e-06
6.1855e-07
-2.05947e-06
4.6408e-07
1.9013e-07
-2.16336e-06
-4.14605e-08
5.65594e-08
-1.72649e-07
2.37792e-07
-4.04965e-07
4.70827e-07
-7.41851e-07
7.22469e-07
-1.17364e-06
9.54889e-07
-1.67385e-06
1.12534e-06
-2.19698e-06
1.1884e-06
-2.67844e-06
1.10001e-06
-3.03737e-06
8.23006e-07
3.36421e-07
-3.18366e-06
-6.60504e-08
1.2261e-07
-2.64771e-07
4.36513e-07
-6.02856e-07
8.08912e-07
-1.0777e-06
1.19731e-06
-1.67165e-06
1.54884e-06
-2.34742e-06
1.80111e-06
-3.0451e-06
1.88609e-06
-3.68171e-06
1.73662e-06
-4.15418e-06
1.29548e-06
5.29865e-07
-4.34762e-06
-9.39436e-08
2.16554e-07
-3.71937e-07
7.14507e-07
-8.35994e-07
1.27297e-06
-1.47531e-06
1.83663e-06
-2.26087e-06
2.3344e-06
-3.14098e-06
2.68122e-06
-4.03842e-06
2.78353e-06
-4.8501e-06
2.5483e-06
-5.45028e-06
1.89566e-06
7.7863e-07
-5.69905e-06
-1.26772e-07
3.43326e-07
-4.99304e-07
1.08704e-06
-1.11452e-06
1.88819e-06
-1.95096e-06
2.67307e-06
-2.96432e-06
3.34775e-06
-4.0841e-06
3.801e-06
-5.21214e-06
3.91157e-06
-6.22332e-06
3.55948e-06
-6.96907e-06
2.6414e-06
1.09446e-06
-7.28489e-06
-1.6724e-07
5.10566e-07
-6.55758e-07
1.57556e-06
-1.45523e-06
2.68766e-06
-2.52931e-06
3.74715e-06
-3.81276e-06
4.6312e-06
-5.21076e-06
5.199e-06
-6.60039e-06
5.30119e-06
-7.8337e-06
4.79279e-06
-8.74154e-06
3.54925e-06
1.49121e-06
-9.1383e-06
-2.1934e-07
7.29907e-07
-8.54515e-07
2.21073e-06
-1.88213e-06
3.71527e-06
-3.24239e-06
5.10742e-06
-4.83986e-06
6.22867e-06
-6.54794e-06
6.90708e-06
-8.21601e-06
6.96926e-06
-9.67648e-06
6.25327e-06
-1.07485e-05
4.62129e-06
1.97934e-06
-1.12366e-05
-2.89236e-07
1.01914e-06
-1.11544e-06
3.03694e-06
-2.42837e-06
5.0282e-06
-4.12702e-06
6.80607e-06
-6.0692e-06
8.17085e-06
-8.08672e-06
8.92459e-06
-1.00022e-05
8.88474e-06
-1.16415e-05
7.89261e-06
-1.28356e-05
5.81539e-06
-1.34072e-05
2.5509e-06
-3.98183e-07
-1.94521e-08
-3.44507e-07
-5.36758e-08
-2.7067e-07
-7.38372e-08
-1.90506e-07
-8.0164e-08
-1.15847e-07
-7.46589e-08
-5.54791e-08
-6.03679e-08
-1.46468e-08
-4.08322e-08
5.14418e-09
-1.9791e-08
6.73023e-09
-1.586e-09
6.73026e-09
-1.19542e-06
-7.50844e-08
-1.04382e-06
-2.05268e-07
-8.36096e-07
-2.81564e-07
-6.10723e-07
-3.05538e-07
-3.99774e-07
-2.85608e-07
-2.26033e-07
-2.34108e-07
-1.01877e-07
-1.64989e-07
-2.94004e-08
-9.22669e-08
-1.10274e-09
-2.98836e-08
5.62754e-09
-2.07137e-06
-1.67079e-07
-1.82164e-06
-4.54992e-07
-1.47906e-06
-6.24146e-07
-1.10567e-06
-6.78933e-07
-7.52512e-07
-6.3876e-07
-4.55326e-07
-5.31294e-07
-2.33324e-07
-3.86991e-07
-9.04854e-08
-2.35105e-07
-1.83769e-08
-1.01992e-07
-1.27493e-08
-3.05474e-06
-2.96e-07
-2.70349e-06
-8.06243e-07
-2.21922e-06
-1.10842e-06
-1.68697e-06
-1.21117e-06
-1.17679e-06
-1.14895e-06
-7.38129e-07
-9.6995e-07
-3.98925e-07
-7.26195e-07
-1.6799e-07
-4.66041e-07
-3.96745e-08
-2.30307e-07
-5.24238e-08
-4.18133e-06
-4.62296e-07
-3.72226e-06
-1.26531e-06
-3.0837e-06
-1.74698e-06
-2.37394e-06
-1.92093e-06
-1.68339e-06
-1.8395e-06
-1.07791e-06
-1.57543e-06
-5.97559e-07
-1.20655e-06
-2.59536e-07
-8.04064e-07
-6.37909e-08
-4.26052e-07
-1.16215e-07
-5.49609e-06
-6.65254e-07
-4.92112e-06
-1.84028e-06
-4.11075e-06
-2.55735e-06
-3.19726e-06
-2.83443e-06
-2.29419e-06
-2.74257e-06
-1.48812e-06
-2.38149e-06
-8.36115e-07
-1.85856e-06
-3.67941e-07
-1.27224e-06
-9.15411e-08
-7.02452e-07
-2.07756e-07
-7.04919e-06
-9.00954e-07
-6.35162e-06
-2.53785e-06
-5.35014e-06
-3.55883e-06
-4.20125e-06
-3.98333e-06
-3.04502e-06
-3.8988e-06
-1.9946e-06
-3.43192e-06
-1.13065e-06
-2.7225e-06
-5.01147e-07
-1.90175e-06
-1.25286e-07
-1.07831e-06
-3.33042e-07
-8.88059e-06
-1.15867e-06
-8.06236e-06
-3.35608e-06
-6.85701e-06
-4.76417e-06
-5.44237e-06
-5.39797e-06
-3.98722e-06
-5.35395e-06
-2.63806e-06
-4.78108e-06
-1.50839e-06
-3.85217e-06
-6.73146e-07
-2.73699e-06
-1.69121e-07
-1.58234e-06
-5.02163e-07
-1.098e-05
-1.41527e-06
-1.00663e-05
-4.26986e-06
-8.66936e-06
-6.16107e-06
-6.97707e-06
-7.09026e-06
-5.18368e-06
-7.14734e-06
-3.475e-06
-6.48976e-06
-2.01003e-06
-5.31714e-06
-9.05719e-07
-3.8413e-06
-2.29474e-07
-2.25858e-06
-7.31638e-07
-1.31943e-05
-1.62815e-06
-1.22598e-05
-5.20435e-06
-1.07468e-05
-7.67414e-06
-8.82301e-06
-9.01402e-06
-6.69041e-06
-9.27994e-06
-4.57347e-06
-8.6067e-06
-2.69241e-06
-7.1982e-06
-1.23185e-06
-5.30186e-06
-3.16491e-07
-3.17394e-06
-1.04813e-06
-3.57133e-07
1.37628e-06
-1.35407e-06
4.03387e-06
-2.89131e-06
6.56544e-06
-4.80474e-06
8.7195e-06
-6.89459e-06
1.02607e-05
-8.95862e-06
1.09886e-05
-1.08205e-05
1.07467e-05
-1.23448e-05
9.41689e-06
-1.34308e-05
6.90142e-06
3.10211e-06
-1.39821e-05
-4.1437e-07
1.79065e-06
-1.52771e-06
5.14721e-06
-3.15988e-06
8.19761e-06
-5.06229e-06
1.06219e-05
-6.98049e-06
1.21789e-05
-8.70706e-06
1.27152e-05
-1.01133e-05
1.21529e-05
-1.11547e-05
1.04584e-05
-1.18499e-05
7.59655e-06
3.48401e-06
-1.22318e-05
-4.9543e-07
2.28608e-06
-1.74471e-06
6.39649e-06
-3.42813e-06
9.88104e-06
-5.18208e-06
1.23759e-05
-6.70858e-06
1.37054e-05
-7.83486e-06
1.38415e-05
-8.52656e-06
1.28446e-05
-8.86587e-06
1.07977e-05
-9.00783e-06
7.73851e-06
3.59831e-06
-9.12213e-06
-6.25187e-07
2.91126e-06
-2.03945e-06
7.81075e-06
-3.69038e-06
1.1532e-05
-5.08701e-06
1.37725e-05
-5.94153e-06
1.45599e-05
-6.18873e-06
1.40887e-05
-5.94265e-06
1.25985e-05
-5.43032e-06
1.02853e-05
-4.9293e-06
7.23748e-06
3.38608e-06
-4.71707e-06
-8.44131e-07
3.75539e-06
-2.43251e-06
9.39913e-06
-3.86234e-06
1.29618e-05
-4.57756e-06
1.44877e-05
-4.4278e-06
1.44102e-05
-3.55348e-06
1.32144e-05
-2.25178e-06
1.12968e-05
-8.71841e-07
8.9054e-06
2.42393e-07
6.12325e-06
2.85875e-06
7.69722e-07
-1.2001e-06
4.9555e-06
-2.86016e-06
1.10592e-05
-3.67133e-06
1.3773e-05
-3.24668e-06
1.40631e-05
-1.77434e-06
1.29378e-05
3.28334e-07
1.11117e-05
2.61355e-06
9.01158e-06
4.69354e-06
6.82541e-06
6.24995e-06
4.56684e-06
2.10947e-06
6.99923e-06
-1.68002e-06
6.63552e-06
-2.98462e-06
1.23638e-05
-2.47549e-06
1.32638e-05
-4.09653e-07
1.19972e-05
2.51875e-06
1.00094e-05
5.67771e-06
7.95272e-06
8.61259e-06
6.0767e-06
1.10318e-05
4.4062e-06
1.27385e-05
2.86016e-06
1.29529e-06
1.35527e-05
-2.00182e-06
8.63734e-06
-1.81067e-06
1.21726e-05
9.57214e-07
1.0496e-05
4.88038e-06
8.07405e-06
8.92132e-06
5.96847e-06
1.25433e-05
4.33071e-06
1.55197e-05
3.1003e-06
1.77775e-05
2.14843e-06
1.92872e-05
1.35046e-06
5.92921e-07
1.99896e-05
-7.62401e-07
9.39974e-06
3.19817e-06
8.21207e-06
8.62984e-06
5.0643e-06
1.35845e-05
3.11938e-06
1.75754e-05
1.97755e-06
2.06194e-05
1.28676e-06
2.28634e-05
8.56277e-07
2.44461e-05
5.65682e-07
2.54536e-05
3.42974e-07
1.42531e-07
2.5904e-05
9.39974e-06
1.76118e-05
2.26761e-05
2.57955e-05
2.7773e-05
2.90598e-05
2.99161e-05
3.04818e-05
3.08247e-05
3.09673e-05
-1.38837e-05
-1.72651e-06
-1.31477e-05
-5.9403e-06
-1.18269e-05
-8.99498e-06
-1.00026e-05
-1.08383e-05
-7.82337e-06
-1.14592e-05
-5.51098e-06
-1.09191e-05
-3.33477e-06
-9.37441e-06
-1.56307e-06
-7.07356e-06
-4.10755e-07
-4.32626e-06
-1.45888e-06
-1.22791e-05
-1.67922e-06
-1.19463e-05
-6.27303e-06
-1.11606e-05
-9.78071e-06
-9.86298e-06
-1.21359e-05
-8.07771e-06
-1.32445e-05
-5.95221e-06
-1.30446e-05
-3.75466e-06
-1.1572e-05
-1.8256e-06
-9.00261e-06
-4.96208e-07
-5.65565e-06
-1.95509e-06
-9.29512e-06
-1.50623e-06
-9.43742e-06
-6.13073e-06
-9.35877e-06
-9.85936e-06
-8.8505e-06
-1.26442e-05
-7.7712e-06
-1.43238e-05
-6.12558e-06
-1.46902e-05
-4.11255e-06
-1.3585e-05
-2.11349e-06
-1.10017e-05
-6.04086e-07
-7.16506e-06
-2.55918e-06
-4.97433e-06
-1.24896e-06
-5.58916e-06
-5.5159e-06
-6.29523e-06
-9.15329e-06
-6.76808e-06
-1.21713e-05
-6.69614e-06
-1.43957e-05
-5.88105e-06
-1.55053e-05
-4.35101e-06
-1.5115e-05
-2.43822e-06
-1.29145e-05
-7.54842e-07
-8.84844e-06
-3.31402e-06
4.76932e-07
-9.56173e-07
-5.23724e-07
-4.51524e-06
-1.95477e-06
-7.72225e-06
-3.45534e-06
-1.06708e-05
-4.60051e-06
-1.32506e-05
-4.97738e-06
-1.51284e-05
-4.33696e-06
-1.57555e-05
-2.7932e-06
-1.44582e-05
-9.84198e-07
-1.06574e-05
-4.29822e-06
6.71253e-06
-6.69471e-07
5.48612e-06
-3.28883e-06
3.54243e-06
-5.77855e-06
1.17589e-06
-8.30423e-06
-1.19661e-06
-1.08781e-05
-3.03174e-06
-1.32933e-05
-3.76559e-06
-1.50216e-05
-3.07709e-06
-1.51467e-05
-1.32957e-06
-1.2405e-05
-5.62779e-06
1.32989e-05
-4.15699e-07
1.205e-05
-2.03997e-06
9.93294e-06
-3.66146e-06
7.09324e-06
-5.46454e-06
3.79128e-06
-7.57609e-06
5.05834e-07
-1.00079e-05
-2.01963e-06
-1.24962e-05
-2.90943e-06
-1.42569e-05
-1.74854e-06
-1.35658e-05
-7.37633e-06
1.97835e-05
-2.09598e-07
1.87182e-05
-9.74673e-07
1.68279e-05
-1.77121e-06
1.40959e-05
-2.73254e-06
1.05319e-05
-4.01206e-06
6.30885e-06
-5.78481e-06
1.97531e-06
-8.16262e-06
-1.30757e-06
-1.0974e-05
-1.90524e-06
-1.29682e-05
-9.28157e-06
2.57583e-05
-6.39115e-08
2.50449e-05
-2.61273e-07
2.37478e-05
-4.74064e-07
2.1765e-05
-7.49802e-07
1.89164e-05
-1.16343e-06
1.49823e-05
-1.85073e-06
9.87016e-06
-3.05043e-06
4.05943e-06
-5.1633e-06
-3.99772e-07
-8.50898e-06
-9.68134e-06
3.09034e-05
3.06421e-05
3.0168e-05
2.94182e-05
2.82548e-05
2.6404e-05
2.33536e-05
1.81903e-05
9.68134e-06
)
;

boundaryField
{
    movingWall
    {
        type            calculated;
        value           uniform 0;
    }
    fixedWalls
    {
        type            calculated;
        value           uniform 0;
    }
    frontAndBack
    {
        type            empty;
        value           nonuniform 0();
    }
}


// ************************************************************************* //
