/*--------------------------------*- C++ -*----------------------------------*\
  =========                 |
  \\      /  F ield         | OpenFOAM: The Open Source CFD Toolbox
   \\    /   O peration     | Website:  https://openfoam.org
    \\  /    A nd           | Version:  6
     \\/     M anipulation  |
\*---------------------------------------------------------------------------*/
FoamFile
{
    version     2.0;
    format      ascii;
    class       volVectorField;
    location    "0.1";
    object      U;
}
// * * * * * * * * * * * * * * * * * * * * * * * * * * * * * * * * * * * * * //

dimensions      [0 1 -1 0 0 0 0];

internalField   nonuniform List<vector> 
400
(
(0.000127949 -0.000126671 0)
(0.000238967 -5.00769e-05 0)
(-7.42868e-05 0.00013063 0)
(-0.000966612 0.000307722 0)
(-0.00244331 0.000441784 0)
(-0.00440011 0.000515564 0)
(-0.00664455 0.000520862 0)
(-0.00890387 0.000455269 0)
(-0.0108332 0.000320929 0)
(-0.0120317 0.000125462 0)
(5.83315e-05 -0.000243582 0)
(-0.000231446 0.000244507 0)
(-0.00157692 0.00108843 0)
(-0.00424323 0.00192479 0)
(-0.00826698 0.00257077 0)
(-0.0134491 0.00292065 0)
(-0.0193426 0.00291394 0)
(-0.0252632 0.0025262 0)
(-0.030316 0.00176563 0)
(-0.0334479 0.000678311 0)
(-0.000113945 4.52485e-05 0)
(-0.00106857 0.0015781 0)
(-0.00373513 0.00371162 0)
(-0.0083152 0.00580239 0)
(-0.0148021 0.00742727 0)
(-0.0229175 0.00829239 0)
(-0.0320213 0.00820779 0)
(-0.0411052 0.00708334 0)
(-0.0488284 0.00492977 0)
(-0.0536015 0.00187662 0)
(-0.000296429 0.000916134 0)
(-0.00198909 0.00429697 0)
(-0.00612771 0.00834244 0)
(-0.0127578 0.0121813 0)
(-0.0217438 0.015128 0)
(-0.032693 0.0166458 0)
(-0.0447834 0.0163556 0)
(-0.0567322 0.0140586 0)
(-0.0668328 0.00975707 0)
(-0.0730573 0.00369864 0)
(-0.000469908 0.00246365 0)
(-0.0029112 0.00868713 0)
(-0.00859759 0.0153694 0)
(-0.017393 0.0214503 0)
(-0.0289718 0.0259914 0)
(-0.0427772 0.0281986 0)
(-0.0577872 0.0274789 0)
(-0.072463 0.0235031 0)
(-0.0847859 0.0162639 0)
(-0.0923673 0.00615727 0)
(-0.000637918 0.00476869 0)
(-0.00383532 0.0150392 0)
(-0.0111319 0.0252613 0)
(-0.0222132 0.0341755 0)
(-0.0365229 0.0405919 0)
(-0.0532911 0.0434629 0)
(-0.0712633 0.0419856 0)
(-0.0886439 0.0357098 0)
(-0.103138 0.0246371 0)
(-0.11206 0.00934573 0)
(-0.000812032 0.00794465 0)
(-0.00480212 0.0237033 0)
(-0.0138077 0.0385723 0)
(-0.0273344 0.0510378 0)
(-0.0445575 0.0596417 0)
(-0.0644448 0.0630947 0)
(-0.0854728 0.060417 0)
(-0.105583 0.0510824 0)
(-0.122239 0.035148 0)
(-0.132528 0.0134146 0)
(-0.00100813 0.0121685 0)
(-0.00587701 0.0351595 0)
(-0.0167628 0.0560141 0)
(-0.0329589 0.0728755 0)
(-0.0533117 0.0839884 0)
(-0.0764665 0.0878494 0)
(-0.100594 0.0833748 0)
(-0.123379 0.070057 0)
(-0.142112 0.048095 0)
(-0.153757 0.0185598 0)
(-0.00124615 0.0177133 0)
(-0.007146 0.0500947 0)
(-0.0201808 0.0785369 0)
(-0.0393391 0.100727 0)
(-0.063022 0.114593 0)
(-0.0894618 0.118491 0)
(-0.11649 0.111382 0)
(-0.141588 0.0929523 0)
(-0.162009 0.0636873 0)
(-0.174811 0.0249815 0)
(-0.00155359 0.0249911 0)
(-0.00872936 0.0694923 0)
(-0.0243063 0.107396 0)
(-0.0467572 0.135805 0)
(-0.0738126 0.152368 0)
(-0.103151 0.1555 0)
(-0.132256 0.144506 0)
(-0.158553 0.119586 0)
(-0.17956 0.0817444 0)
(-0.192831 0.0327495 0)
(-0.0120857 -0.000103727 0)
(-0.010959 -0.000311844 0)
(-0.00903167 -0.000461432 0)
(-0.0067225 -0.00053653 0)
(-0.00441307 -0.000531681 0)
(-0.00240811 -0.000450969 0)
(-0.000914788 -0.000307212 0)
(-3.39825e-05 -0.000122866 0)
(0.000256295 5.88213e-05 0)
(0.000130901 0.000129744 0)
(-0.0335683 -0.000580385 0)
(-0.0305968 -0.00172427 0)
(-0.0255522 -0.00255382 0)
(-0.0195262 -0.00298534 0)
(-0.013493 -0.00299545 0)
(-0.00820468 -0.00261576 0)
(-0.00413955 -0.00192714 0)
(-0.00149058 -0.00105781 0)
(-0.000189191 -0.000206486 0)
(6.8019e-05 0.000260804 0)
(-0.0537713 -0.00163633 0)
(-0.0492269 -0.00482675 0)
(-0.0415237 -0.007149 0)
(-0.0323012 -0.00838236 0)
(-0.0230057 -0.00847863 0)
(-0.0147381 -0.00754436 0)
(-0.00818413 -0.00581756 0)
(-0.00361831 -0.00364509 0)
(-0.00100761 -0.00148737 0)
(-9.88203e-05 2.44082e-06 0)
(-0.0732847 -0.00324921 0)
(-0.0673752 -0.00955829 0)
(-0.0573232 -0.0141706 0)
(-0.0452123 -0.0166733 0)
(-0.032877 -0.0169939 0)
(-0.0217184 -0.0153577 0)
(-0.012624 -0.0122275 0)
(-0.00599142 -0.0082347 0)
(-0.00191221 -0.00413407 0)
(-0.000276052 -0.000823078 0)
(-0.0926913 -0.0053982 0)
(-0.0855775 -0.0159091 0)
(-0.0733707 -0.0236573 0)
(-0.0585165 -0.027984 0)
(-0.043188 -0.0287784 0)
(-0.0290796 -0.0264012 0)
(-0.017312 -0.0215715 0)
(-0.0084659 -0.0152323 0)
(-0.00282393 -0.00843915 0)
(-0.000444264 -0.00230999 0)
(-0.112558 -0.00808558 0)
(-0.104386 -0.0239999 0)
(-0.0901522 -0.0358761 0)
(-0.0725924 -0.0427392 0)
(-0.0541923 -0.0443937 0)
(-0.036961 -0.0413144 0)
(-0.0223077 -0.0344771 0)
(-0.011064 -0.0251508 0)
(-0.00375549 -0.014715 0)
(-0.000609039 -0.00454252 0)
(-0.133322 -0.011289 0)
(-0.124278 -0.0339727 0)
(-0.108157 -0.0511723 0)
(-0.0879066 -0.0615001 0)
(-0.0662975 -0.0645809 0)
(-0.045686 -0.0609314 0)
(-0.027841 -0.0517506 0)
(-0.0139263 -0.0386455 0)
(-0.00477176 -0.0233722 0)
(-0.000786601 -0.00765146 0)
(-0.155017 -0.0149165 0)
(-0.145409 -0.0459003 0)
(-0.127695 -0.0698635 0)
(-0.104895 -0.0848773 0)
(-0.0799972 -0.0902216 0)
(-0.0557241 -0.0863051 0)
(-0.0342862 -0.0744615 0)
(-0.0172903 -0.0566311 0)
(-0.00597787 -0.0350257 0)
(-0.00100086 -0.0118607 0)
(-0.176729 -0.0187488 0)
(-0.167121 -0.0596432 0)
(-0.14849 -0.0920556 0)
(-0.123671 -0.113364 0)
(-0.0956956 -0.122243 0)
(-0.067604 -0.118713 0)
(-0.0421282 -0.104039 0)
(-0.0214833 -0.0804277 0)
(-0.00752014 -0.0506269 0)
(-0.00128468 -0.0175439 0)
(-0.195546 -0.0223554 0)
(-0.186931 -0.0745615 0)
(-0.168818 -0.117225 0)
(-0.143382 -0.1469 0)
(-0.1133 -0.161276 0)
(-0.0817167 -0.159489 0)
(-0.0519096 -0.142291 0)
(-0.0269324 -0.111908 0)
(-0.00960324 -0.0716326 0)
(-0.00168529 -0.0253072 0)
(-0.00196232 0.0342657 0)
(-0.0107566 0.093796 0)
(-0.029331 0.142767 0)
(-0.0552034 0.177597 0)
(-0.0850507 0.195894 0)
(-0.115835 0.19661 0)
(-0.144794 0.179983 0)
(-0.169659 0.147252 0)
(-0.188775 0.100259 0)
(-0.200858 0.0411456 0)
(-0.00253074 0.0453579 0)
(-0.0134038 0.12204 0)
(-0.0353763 0.182349 0)
(-0.0642496 0.222129 0)
(-0.0951433 0.239619 0)
(-0.12428 0.235252 0)
(-0.149047 0.211084 0)
(-0.168143 0.170012 0)
(-0.181497 0.114953 0)
(-0.189742 0.0482685 0)
(-0.00341943 0.0583805 0)
(-0.017127 0.153635 0)
(-0.0428644 0.223909 0)
(-0.0735503 0.265162 0)
(-0.102311 0.277701 0)
(-0.125054 0.264878 0)
(-0.140188 0.231556 0)
(-0.148296 0.182682 0)
(-0.1516 0.122165 0)
(-0.153108 0.0522219 0)
(-0.00499044 0.0743572 0)
(-0.0228449 0.189329 0)
(-0.0524586 0.266107 0)
(-0.0822802 0.302929 0)
(-0.103585 0.30485 0)
(-0.113323 0.279997 0)
(-0.112398 0.236738 0)
(-0.104261 0.181877 0)
(-0.0937697 0.119708 0)
(-0.0861925 0.0517383 0)
(-0.00796002 0.0952862 0)
(-0.0319264 0.229959 0)
(-0.0640826 0.306067 0)
(-0.0871702 0.329582 0)
(-0.0926011 0.31445 0)
(-0.0811497 0.275139 0)
(-0.0579849 0.223155 0)
(-0.0298794 0.165921 0)
(-0.00381973 0.106936 0)
(0.0136167 0.0463593 0)
(-0.0134656 0.124658 0)
(-0.0455039 0.275105 0)
(-0.0744302 0.337274 0)
(-0.0792502 0.336181 0)
(-0.0572013 0.299072 0)
(-0.0166114 0.246249 0)
(0.0323027 0.189949 0)
(0.0804643 0.135876 0)
(0.12047 0.0853367 0)
(0.146139 0.0367909 0)
(-0.0221171 0.168422 0)
(-0.0610038 0.31955 0)
(-0.0708207 0.345919 0)
(-0.0386624 0.31008 0)
(0.0226172 0.252167 0)
(0.0956514 0.192811 0)
(0.167607 0.140297 0)
(0.23025 0.096077 0)
(0.278387 0.0585635 0)
(0.308082 0.0248792 0)
(-0.0285801 0.232683 0)
(-0.0614668 0.344461 0)
(-0.0194651 0.308173 0)
(0.0710583 0.238709 0)
(0.174256 0.173353 0)
(0.271224 0.121418 0)
(0.353737 0.0827542 0)
(0.418765 0.0540744 0)
(0.465498 0.031895 0)
(0.493183 0.0132039 0)
(0.00799372 0.28287 0)
(0.0201847 0.300578 0)
(0.154037 0.205851 0)
(0.303654 0.130586 0)
(0.425257 0.0819177 0)
(0.518629 0.0515099 0)
(0.588558 0.0325391 0)
(0.639096 0.0201897 0)
(0.673337 0.0114645 0)
(0.69279 0.00452044 0)
(0.305487 0.14474 0)
(0.408948 0.125506 0)
(0.582961 0.0698644 0)
(0.708871 0.0365022 0)
(0.78181 0.0194238 0)
(0.827064 0.0107033 0)
(0.857021 0.00614132 0)
(0.877024 0.0035676 0)
(0.889861 0.00192108 0)
(0.896791 0.000683169 0)
(-0.204231 -0.0248479 0)
(-0.198136 -0.0883504 0)
(-0.183182 -0.142249 0)
(-0.160146 -0.182329 0)
(-0.130597 -0.204884 0)
(-0.0972205 -0.207399 0)
(-0.0636285 -0.18924 0)
(-0.0339165 -0.15196 0)
(-0.012422 -0.099121 0)
(-0.00225412 -0.0357066 0)
(-0.193114 -0.0253031 0)
(-0.191155 -0.0972887 0)
(-0.18282 -0.161118 0)
(-0.166766 -0.212284 0)
(-0.142491 -0.245582 0)
(-0.111208 -0.256087 0)
(-0.0761315 -0.240496 0)
(-0.0422708 -0.198306 0)
(-0.0160885 -0.132391 0)
(-0.00304587 -0.0487598 0)
(-0.155424 -0.0236427 0)
(-0.158673 -0.0990858 0)
(-0.160123 -0.169224 0)
(-0.156055 -0.230125 0)
(-0.143155 -0.275618 0)
(-0.119931 -0.298126 0)
(-0.0878118 -0.290406 0)
(-0.0518369 -0.247835 0)
(-0.0208999 -0.170538 0)
(-0.0042037 -0.0645771 0)
(-0.0863588 -0.0203374 0)
(-0.0951017 -0.0930937 0)
(-0.108425 -0.164202 0)
(-0.120689 -0.231345 0)
(-0.12573 -0.288614 0)
(-0.118361 -0.32652 0)
(-0.0962992 -0.33329 0)
(-0.0625052 -0.297763 0)
(-0.0275772 -0.213638 0)
(-0.00607624 -0.0840828 0)
(0.0162535 -0.0161124 0)
(0.00270518 -0.0800026 0)
(-0.0225705 -0.145736 0)
(-0.0532805 -0.2134 0)
(-0.0815255 -0.279041 0)
(-0.0985259 -0.333333 0)
(-0.0965825 -0.361096 0)
(-0.0730916 -0.343072 0)
(-0.0371749 -0.261315 0)
(-0.00936134 -0.109042 0)
(0.151369 -0.0117061 0)
(0.134633 -0.0618369 0)
(0.0999358 -0.116113 0)
(0.0524932 -0.177062 0)
(-0.000365411 -0.24411 0)
(-0.0483016 -0.311134 0)
(-0.0783559 -0.363241 0)
(-0.0787691 -0.374705 0)
(-0.0501567 -0.311263 0)
(-0.015094 -0.142528 0)
(0.314714 -0.0076606 0)
(0.297088 -0.041572 0)
(0.258079 -0.0801095 0)
(0.200387 -0.127217 0)
(0.128087 -0.185808 0)
(0.0491019 -0.255468 0)
(-0.0223238 -0.327372 0)
(-0.0654141 -0.376935 0)
(-0.0625063 -0.355746 0)
(-0.023402 -0.189749 0)
(0.499386 -0.00428314 0)
(0.483507 -0.0226154 0)
(0.44711 -0.0443651 0)
(0.390094 -0.0731354 0)
(0.311833 -0.113415 0)
(0.213707 -0.170016 0)
(0.103061 -0.244553 0)
(-0.000195628 -0.326819 0)
(-0.0552747 -0.373147 0)
(-0.0274822 -0.254457 0)
(0.696828 -0.00180439 0)
(0.68535 -0.00846764 0)
(0.658922 -0.0166695 0)
(0.615899 -0.0283385 0)
(0.552446 -0.0467029 0)
(0.463026 -0.0773453 0)
(0.340783 -0.128842 0)
(0.183619 -0.211067 0)
(0.0372122 -0.313887 0)
(0.0155709 -0.295942 0)
(0.897894 -0.000420071 0)
(0.893226 -0.00158925 0)
(0.882854 -0.00307996 0)
(0.865688 -0.0053647 0)
(0.839005 -0.00942049 0)
(0.797342 -0.01741 0)
(0.727967 -0.0339229 0)
(0.603073 -0.0678087 0)
(0.423146 -0.125925 0)
(0.311858 -0.147042 0)
)
;

boundaryField
{
    movingWall
    {
        type            fixedValue;
        value           uniform (1 0 0);
    }
    fixedWalls
    {
        type            noSlip;
    }
    frontAndBack
    {
        type            empty;
    }
}


// ************************************************************************* //
