/*--------------------------------*- C++ -*----------------------------------*\
| =========                 |                                                 |
| \\      /  F ield         | OpenFOAM: The Open Source CFD Toolbox           |
|  \\    /   O peration     | Version:  5.0                                   |
|   \\  /    A nd           | Web:      www.OpenFOAM.org                      |
|    \\/     M anipulation  |                                                 |
\*---------------------------------------------------------------------------*/
FoamFile
{
    version     2.0;
    format      ascii;
    class       volScalarField;
    location    "7";
    object      p;
}
// * * * * * * * * * * * * * * * * * * * * * * * * * * * * * * * * * * * * * //

dimensions      [0 2 -2 0 0 0 0];

internalField   nonuniform List<scalar> 
400
(
4.14346e-08
-8.63942e-05
-0.000228555
-0.000139917
-0.00071558
-0.00220942
-0.00406966
-0.00576415
-0.00711204
-0.00805193
-0.00858442
-0.00868039
-0.00827396
-0.00716491
-0.00510269
-0.0019913
0.00205611
0.00644517
0.0095972
0.0110225
2.02851e-05
-4.15887e-05
-0.000195964
-0.000735783
-0.00182561
-0.00341966
-0.00508408
-0.00665347
-0.00787588
-0.00871862
-0.00918962
-0.00930419
-0.00900957
-0.0081689
-0.00654123
-0.00395352
-0.000403643
0.00380117
0.00741512
0.0095809
0.000283136
-5.69118e-05
-0.000741906
-0.0019016
-0.00348315
-0.00517282
-0.00681939
-0.00827969
-0.00931471
-0.00996786
-0.010284
-0.0103117
-0.0100297
-0.00936667
-0.00819181
-0.0063446
-0.00363689
-6.68852e-05
0.00354596
0.00603687
0.000194802
-0.000467483
-0.00174536
-0.00348743
-0.00535516
-0.00708734
-0.00854217
-0.00960271
-0.0103215
-0.0107458
-0.0109026
-0.0108433
-0.0105873
-0.0101008
-0.00928863
-0.00804242
-0.00619642
-0.00350327
-0.000407251
0.00191326
-0.000558236
-0.00146308
-0.00318132
-0.00518439
-0.00702264
-0.00853182
-0.00968995
-0.0105261
-0.0110849
-0.0113949
-0.0114778
-0.0113769
-0.0111299
-0.0107375
-0.010126
-0.00921361
-0.00801022
-0.00614586
-0.00389005
-0.00183543
-0.00196609
-0.00295067
-0.0047677
-0.00670049
-0.00833907
-0.0096038
-0.0105953
-0.011328
-0.0118032
-0.0120367
-0.0120635
-0.0119345
-0.0116924
-0.0113561
-0.0108822
-0.0101875
-0.00936916
-0.00807365
-0.00656256
-0.0048906
-0.00362009
-0.00455686
-0.00623689
-0.00797749
-0.0094053
-0.0105083
-0.0114104
-0.0120908
-0.0125163
-0.0126976
-0.012679
-0.0125143
-0.0122686
-0.0119622
-0.0115843
-0.0110217
-0.0104383
-0.00951534
-0.00853177
-0.00720969
-0.00513257
-0.00596671
-0.0074573
-0.00901321
-0.0102746
-0.0112808
-0.0121462
-0.0127914
-0.0131767
-0.0133126
-0.0132485
-0.0130469
-0.0127928
-0.0125009
-0.0121904
-0.0117127
-0.0112783
-0.010571
-0.00990473
-0.00890234
-0.00625773
-0.00701114
-0.00836097
-0.00980012
-0.0109568
-0.0119124
-0.0127582
-0.0133759
-0.0137309
-0.0138288
-0.0137274
-0.013492
-0.0132262
-0.0129382
-0.0126762
-0.0122412
-0.0119117
-0.011276
-0.0108738
-0.0100862
-0.006932
-0.00761971
-0.00889633
-0.0102951
-0.0114033
-0.0123373
-0.0131772
-0.0137842
-0.0141264
-0.0141953
-0.0140709
-0.0138163
-0.0135442
-0.013253
-0.0130301
-0.0125806
-0.0123679
-0.011639
-0.011512
-0.0108271
-0.00711981
-0.00778513
-0.00903347
-0.0104468
-0.0115729
-0.0125194
-0.0133632
-0.0139735
-0.0143273
-0.0143781
-0.0142556
-0.0139958
-0.0137257
-0.013429
-0.0132271
-0.0127222
-0.0126167
-0.0116705
-0.0118895
-0.0110812
-0.0068186
-0.00751621
-0.00876539
-0.0102329
-0.011425
-0.0124219
-0.0132767
-0.0139097
-0.0142856
-0.0143818
-0.0142741
-0.0140264
-0.0137589
-0.0134627
-0.0132237
-0.0126986
-0.0125432
-0.0114078
-0.0118794
-0.0107787
-0.00610799
-0.006873
-0.00814218
-0.00965582
-0.0109401
-0.0120101
-0.0129137
-0.0136049
-0.0140423
-0.0141986
-0.0141313
-0.0139085
-0.0136419
-0.0133308
-0.0130115
-0.0124581
-0.0120698
-0.0108289
-0.0113659
-0.00985943
-0.0052306
-0.00603551
-0.007266
-0.00872087
-0.0101164
-0.0112892
-0.0122857
-0.0130694
-0.0135944
-0.0138299
-0.0138232
-0.01364
-0.0133677
-0.013013
-0.0125752
-0.0119241
-0.0112043
-0.0098737
-0.0103162
-0.00837346
-0.00444111
-0.00517221
-0.00624615
-0.00752521
-0.00895206
-0.0102622
-0.0114078
-0.012323
-0.0129687
-0.0133116
-0.0133852
-0.0132357
-0.0129341
-0.0124872
-0.0118774
-0.0110273
-0.0099616
-0.00853411
-0.00879682
-0.00636967
-0.00415455
-0.00450287
-0.00513407
-0.00610822
-0.0074522
-0.00890263
-0.0102516
-0.0113604
-0.0121787
-0.0126628
-0.0128212
-0.0126911
-0.0123321
-0.0117438
-0.010911
-0.0097882
-0.00841797
-0.00687922
-0.00685014
-0.00387493
-0.00424271
-0.00409496
-0.00397853
-0.00450642
-0.00569276
-0.00722127
-0.00878487
-0.0101227
-0.0111476
-0.0118072
-0.0120908
-0.0120061
-0.0115806
-0.010831
-0.00975358
-0.00833989
-0.00667821
-0.00498798
-0.00451205
-0.000758705
-0.00409301
-0.00348356
-0.00271388
-0.00279609
-0.00382381
-0.00539132
-0.00711166
-0.00864388
-0.00987001
-0.0107073
-0.0111231
-0.0111001
-0.0106634
-0.00981256
-0.00855834
-0.00690011
-0.00496842
-0.00293877
-0.00140405
0.00441824
-0.00353376
-0.00264401
-0.00153487
-0.00140059
-0.00231957
-0.00390324
-0.00572245
-0.0074379
-0.00883972
-0.00984235
-0.0103835
-0.0104499
-0.0100268
-0.00912391
-0.00776261
-0.00592357
-0.00359428
-0.000516172
0.00474519
0.0172762
-0.00495449
-0.00182391
-0.000461866
-0.000483022
-0.00135984
-0.00295112
-0.00481936
-0.00669208
-0.00824007
-0.00937002
-0.0100086
-0.0101578
-0.0097961
-0.00893607
-0.00752084
-0.00547026
-0.00198063
0.00494023
0.018965
0.0416212
)
;

boundaryField
{
    movingWall
    {
        type            zeroGradient;
    }
    fixedWalls
    {
        type            zeroGradient;
    }
    frontAndBack
    {
        type            empty;
    }
}


// ************************************************************************* //
