/*--------------------------------*- C++ -*----------------------------------*\
| =========                 |                                                 |
| \\      /  F ield         | OpenFOAM: The Open Source CFD Toolbox           |
|  \\    /   O peration     | Version:  5.0                                   |
|   \\  /    A nd           | Web:      www.OpenFOAM.org                      |
|    \\/     M anipulation  |                                                 |
\*---------------------------------------------------------------------------*/
FoamFile
{
    version     2.0;
    format      ascii;
    class       surfaceScalarField;
    location    "7";
    object      phi;
}
// * * * * * * * * * * * * * * * * * * * * * * * * * * * * * * * * * * * * * //

dimensions      [0 3 -1 0 0 0 0];

internalField   nonuniform List<scalar> 
760
(
2.59408e-07
-2.59412e-07
1.45178e-07
1.1423e-07
-4.99681e-07
6.44859e-07
-1.90537e-06
1.40569e-06
-3.59407e-06
1.6887e-06
-5.02987e-06
1.4358e-06
-6.23853e-06
1.20867e-06
-7.12107e-06
8.8254e-07
-7.80902e-06
6.87944e-07
-8.26684e-06
4.57826e-07
-8.58201e-06
3.15167e-07
-8.71837e-06
1.36362e-07
-8.70716e-06
-1.12087e-08
-8.5022e-06
-2.04967e-07
-8.08498e-06
-4.17214e-07
-7.27708e-06
-8.07902e-07
-5.98349e-06
-1.29359e-06
-4.03824e-06
-1.94525e-06
-1.69768e-06
-2.34056e-06
-1.69768e-06
-2.48608e-07
-1.08039e-08
-1.15984e-06
1.02546e-06
-2.77379e-06
2.25881e-06
-4.36579e-06
2.9977e-06
-5.46234e-06
2.78524e-06
-6.43836e-06
2.41182e-06
-7.16089e-06
1.9312e-06
-7.78451e-06
1.50616e-06
-8.20755e-06
1.11099e-06
-8.48917e-06
7.39449e-07
-8.60151e-06
4.27506e-07
-8.57728e-06
1.12124e-07
-8.44212e-06
-1.46367e-07
-8.20232e-06
-4.44761e-07
-7.7801e-06
-8.39441e-07
-7.14906e-06
-1.43893e-06
-6.11682e-06
-2.32583e-06
-4.53979e-06
-3.52229e-06
-2.34475e-06
-4.5356e-06
-4.04243e-06
-9.52813e-07
9.42009e-07
-2.43236e-06
2.505e-06
-3.84844e-06
3.6749e-06
-4.83828e-06
3.98753e-06
-5.57638e-06
3.52334e-06
-6.12481e-06
2.96026e-06
-6.43246e-06
2.23885e-06
-6.56356e-06
1.63725e-06
-6.50503e-06
1.05246e-06
-6.42706e-06
6.61478e-07
-6.30661e-06
3.07064e-07
-6.24149e-06
4.6995e-08
-6.1114e-06
-2.76457e-07
-5.94825e-06
-6.07905e-07
-5.67639e-06
-1.1113e-06
-5.29448e-06
-1.82084e-06
-4.75254e-06
-2.86777e-06
-3.81137e-06
-4.46345e-06
-2.25272e-06
-6.09425e-06
-6.29515e-06
-1.2971e-06
2.23911e-06
-2.73461e-06
3.94252e-06
-3.79245e-06
4.73274e-06
-4.42292e-06
4.618e-06
-4.7443e-06
3.84472e-06
-4.7711e-06
2.98705e-06
-4.67353e-06
2.14129e-06
-4.57573e-06
1.53946e-06
-4.50449e-06
9.81207e-07
-4.42323e-06
5.80226e-07
-4.31608e-06
1.99915e-07
-4.19129e-06
-7.77972e-08
-4.07334e-06
-3.94408e-07
-3.95589e-06
-7.25361e-07
-3.80567e-06
-1.26152e-06
-3.58859e-06
-2.03793e-06
-3.28155e-06
-3.17481e-06
-2.73677e-06
-5.00823e-06
-1.72048e-06
-7.11053e-06
-8.01563e-06
-1.29321e-06
3.53231e-06
-2.42749e-06
5.0768e-06
-3.1465e-06
5.45174e-06
-3.50018e-06
4.97169e-06
-3.56814e-06
3.91267e-06
-3.56285e-06
2.98177e-06
-3.58406e-06
2.16249e-06
-3.61236e-06
1.56776e-06
-3.60594e-06
9.74793e-07
-3.5354e-06
5.09679e-07
-3.39861e-06
6.31313e-08
-3.22523e-06
-2.51178e-07
-3.03913e-06
-5.80508e-07
-2.85311e-06
-9.11381e-07
-2.6852e-06
-1.42943e-06
-2.47283e-06
-2.2503e-06
-2.24811e-06
-3.39953e-06
-2.02692e-06
-5.22943e-06
-1.32285e-06
-7.8146e-06
-9.33848e-06
-1.04425e-06
4.57656e-06
-1.86403e-06
5.89658e-06
-2.39164e-06
5.97935e-06
-2.62503e-06
5.20508e-06
-2.71781e-06
4.00545e-06
-2.81797e-06
3.08193e-06
-2.96505e-06
2.30957e-06
-3.06225e-06
1.66495e-06
-3.08091e-06
9.93453e-07
-3.00943e-06
4.38201e-07
-2.86743e-06
-7.88662e-08
-2.6801e-06
-4.38507e-07
-2.47964e-06
-7.80972e-07
-2.25618e-06
-1.13484e-06
-2.04486e-06
-1.64075e-06
-1.79096e-06
-2.5042e-06
-1.50677e-06
-3.68372e-06
-1.27442e-06
-5.46177e-06
-9.88985e-07
-8.10003e-06
-1.03275e-05
-7.48274e-07
5.32484e-06
-1.33175e-06
6.48006e-06
-1.72399e-06
6.37159e-06
-1.90857e-06
5.38966e-06
-2.06125e-06
4.15813e-06
-2.24635e-06
3.26703e-06
-2.42485e-06
2.48807e-06
-2.52251e-06
1.76261e-06
-2.54313e-06
1.01407e-06
-2.47438e-06
3.69452e-07
-2.34858e-06
-2.04669e-07
-2.17391e-06
-6.13172e-07
-1.99935e-06
-9.55531e-07
-1.81236e-06
-1.32183e-06
-1.61678e-06
-1.83632e-06
-1.37404e-06
-2.74694e-06
-1.12122e-06
-3.93654e-06
-9.1856e-07
-5.66444e-06
-7.28795e-07
-8.2898e-06
-1.10563e-05
-4.47418e-07
5.77225e-06
-8.4554e-07
6.87818e-06
-1.13246e-06
6.65851e-06
-1.31592e-06
5.57313e-06
-1.49119e-06
4.3334e-06
-1.68249e-06
3.45832e-06
-1.84975e-06
2.65534e-06
-1.94095e-06
1.8538e-06
-1.96451e-06
1.03763e-06
-1.91009e-06
3.1504e-07
-1.81237e-06
-3.02392e-07
-1.67141e-06
-7.54136e-07
-1.52273e-06
-1.10421e-06
-1.37076e-06
-1.47381e-06
-1.20963e-06
-1.99744e-06
-1.01314e-06
-2.94343e-06
-7.46164e-07
-4.20352e-06
-5.81849e-07
-5.82875e-06
-5.41773e-07
-8.32988e-06
-1.1598e-05
-2.07121e-07
5.97938e-06
-4.34916e-07
7.10598e-06
-6.14212e-07
6.8378e-06
-7.68608e-07
5.72752e-06
-9.30408e-07
4.4952e-06
-1.09294e-06
3.62086e-06
-1.23166e-06
2.79406e-06
-1.31702e-06
1.93917e-06
-1.35223e-06
1.07283e-06
-1.32404e-06
2.8685e-07
-1.26522e-06
-3.61209e-07
-1.18435e-06
-8.35004e-07
-1.094e-06
-1.19456e-06
-9.93394e-07
-1.57441e-06
-8.6838e-07
-2.12246e-06
-7.33154e-07
-3.07866e-06
-5.61319e-07
-4.37536e-06
-4.37352e-07
-5.95272e-06
-3.88002e-07
-8.37923e-06
-1.1986e-05
4.80952e-08
5.93128e-06
-3.95071e-08
7.19358e-06
-1.18836e-07
6.91713e-06
-2.13694e-07
5.82238e-06
-3.49007e-07
4.63051e-06
-4.82294e-07
3.75414e-06
-5.85191e-07
2.89696e-06
-6.5234e-07
2.00632e-06
-6.94377e-07
1.11487e-06
-7.03653e-07
2.96126e-07
-6.91492e-07
-3.7337e-07
-6.67402e-07
-8.59094e-07
-6.37212e-07
-1.22475e-06
-5.99925e-07
-1.6117e-06
-5.12642e-07
-2.20974e-06
-4.21234e-07
-3.17007e-06
-2.9574e-07
-4.50085e-06
-2.28449e-07
-6.02001e-06
-3.10564e-07
-8.29711e-06
-1.22966e-05
2.89492e-07
5.64179e-06
3.82593e-07
7.10048e-06
4.02678e-07
6.89705e-06
3.18427e-07
5.90663e-06
2.33914e-07
4.71502e-06
1.57681e-07
3.83038e-06
1.02037e-07
2.9526e-06
5.05137e-08
2.05784e-06
5.13252e-09
1.16025e-06
-5.53222e-08
3.56581e-07
-1.08121e-07
-3.20571e-07
-1.63914e-07
-8.03301e-07
-1.91016e-07
-1.19765e-06
-2.26752e-07
-1.57596e-06
-1.70719e-07
-2.26577e-06
-1.61758e-07
-3.17903e-06
-8.96711e-08
-4.57294e-06
-1.30171e-07
-5.97951e-06
-2.31404e-07
-8.19588e-06
-1.2528e-05
5.16482e-07
5.12531e-06
8.11512e-07
6.80545e-06
9.53253e-07
6.75531e-06
8.93243e-07
5.96664e-06
8.40997e-07
4.76727e-06
8.18877e-07
3.8525e-06
7.89756e-07
2.98172e-06
7.44877e-07
2.10272e-06
6.78459e-07
1.22667e-06
5.96199e-07
4.38841e-07
4.9136e-07
-2.15732e-07
3.88186e-07
-7.00127e-07
2.95733e-07
-1.1052e-06
2.27829e-07
-1.50806e-06
2.18664e-07
-2.25661e-06
1.64704e-07
-3.12507e-06
1.72201e-07
-4.58044e-06
-1.51683e-08
-5.79214e-06
-1.87264e-07
-8.02378e-06
-1.27153e-05
7.94303e-07
4.331e-06
1.20757e-06
6.39218e-06
1.47148e-06
6.4914e-06
1.50105e-06
5.93707e-06
1.46794e-06
4.80038e-06
1.48411e-06
3.83632e-06
1.49665e-06
2.96918e-06
1.47277e-06
2.1266e-06
1.39839e-06
1.30104e-06
1.28277e-06
5.54462e-07
1.12544e-06
-5.84016e-08
9.69102e-07
-5.43786e-07
8.23005e-07
-9.591e-07
7.40245e-07
-1.42529e-06
6.31991e-07
-2.14835e-06
5.59565e-07
-3.05264e-06
4.03882e-07
-4.42475e-06
1.28773e-07
-5.51703e-06
-4.18597e-08
-7.85315e-06
-1.27571e-05
1.01416e-06
3.31685e-06
1.63691e-06
5.76942e-06
1.9998e-06
6.12851e-06
2.15063e-06
5.78624e-06
2.13822e-06
4.81279e-06
2.17427e-06
3.80028e-06
2.21918e-06
2.92427e-06
2.22149e-06
2.12429e-06
2.14835e-06
1.37419e-06
2.01396e-06
6.88846e-07
1.83578e-06
1.19785e-07
1.6463e-06
-3.54314e-07
1.47009e-06
-7.82889e-07
1.3504e-06
-1.3056e-06
1.19202e-06
-1.98997e-06
1.06183e-06
-2.92246e-06
7.64981e-07
-4.1279e-06
3.97619e-07
-5.14967e-06
8.73077e-08
-7.54284e-06
-1.26698e-05
1.24576e-06
2.07108e-06
1.93456e-06
5.08063e-06
2.41079e-06
5.65228e-06
2.7564e-06
5.44063e-06
2.89322e-06
4.67597e-06
2.96769e-06
3.72581e-06
3.01017e-06
2.88179e-06
3.02617e-06
2.10829e-06
2.97229e-06
1.42807e-06
2.84819e-06
8.12945e-07
2.66844e-06
2.99533e-07
2.48011e-06
-1.65985e-07
2.28456e-06
-5.8734e-07
2.11785e-06
-1.13889e-06
1.90795e-06
-1.78007e-06
1.67265e-06
-2.68716e-06
1.20477e-06
-3.66002e-06
6.47668e-07
-4.59257e-06
2.42522e-07
-7.13769e-06
-1.24273e-05
1.21835e-06
8.52735e-07
2.08694e-06
4.21204e-06
2.71901e-06
5.02021e-06
3.27979e-06
4.87984e-06
3.62702e-06
4.32874e-06
3.82185e-06
3.53098e-06
3.93978e-06
2.76386e-06
3.99154e-06
2.05652e-06
3.97157e-06
1.44805e-06
3.87968e-06
9.04829e-07
3.72443e-06
4.54784e-07
3.55887e-06
-4.24344e-10
3.35068e-06
-3.79155e-07
3.12781e-06
-9.16022e-07
2.82471e-06
-1.47696e-06
2.39812e-06
-2.26057e-06
1.7539e-06
-3.0158e-06
1.01043e-06
-3.84909e-06
4.79615e-07
-6.60688e-06
-1.19477e-05
6.37922e-07
2.14813e-07
1.76392e-06
3.08605e-06
2.74708e-06
4.03705e-06
3.58953e-06
4.03739e-06
4.23583e-06
3.68244e-06
4.67886e-06
3.08794e-06
4.96389e-06
2.47884e-06
5.13652e-06
1.88389e-06
5.19051e-06
1.39406e-06
5.18342e-06
9.11915e-07
5.08597e-06
5.52235e-07
4.91504e-06
1.70506e-07
4.67562e-06
-1.39731e-07
4.35524e-06
-5.95643e-07
3.88114e-06
-1.00287e-06
3.22935e-06
-1.60878e-06
2.33451e-06
-2.12096e-06
1.39438e-06
-2.90897e-06
8.12775e-07
-6.02527e-06
-1.11349e-05
-2.08599e-07
4.23412e-07
1.0743e-06
1.80315e-06
2.27946e-06
2.83189e-06
3.4452e-06
2.87165e-06
4.41429e-06
2.71335e-06
5.18211e-06
2.32012e-06
5.72342e-06
1.93753e-06
6.11823e-06
1.48908e-06
6.3264e-06
1.18589e-06
6.41813e-06
8.20188e-07
6.36318e-06
6.07185e-07
6.23285e-06
3.00838e-07
5.95354e-06
1.3958e-07
5.53501e-06
-1.77115e-07
4.90757e-06
-3.75433e-07
4.08156e-06
-7.82761e-07
2.96352e-06
-1.00293e-06
2.04187e-06
-1.98732e-06
1.36527e-06
-5.34867e-06
-9.76964e-06
-1.20234e-06
1.62575e-06
-2.78864e-07
8.79678e-07
1.25131e-06
1.30172e-06
2.72932e-06
1.39364e-06
4.00556e-06
1.4371e-06
5.05751e-06
1.26817e-06
5.85074e-06
1.14429e-06
6.43528e-06
9.0454e-07
6.82515e-06
7.9603e-07
7.03861e-06
6.06726e-07
7.10143e-06
5.4436e-07
7.00917e-06
3.93096e-07
6.78907e-06
3.59686e-07
6.40146e-06
2.10491e-07
5.86218e-06
1.63847e-07
5.14044e-06
-6.10239e-08
4.40271e-06
-2.65196e-07
3.78104e-06
-1.36565e-06
2.59087e-06
-4.1585e-06
-7.17877e-06
1.62575e-06
2.50543e-06
3.80715e-06
5.20079e-06
6.6379e-06
7.90607e-06
9.05036e-06
9.9549e-06
1.07509e-05
1.13577e-05
1.1902e-05
1.22951e-05
1.26548e-05
1.28653e-05
1.30291e-05
1.29681e-05
1.27029e-05
1.13373e-05
7.17877e-06
)
;

boundaryField
{
    movingWall
    {
        type            calculated;
        value           uniform 0;
    }
    fixedWalls
    {
        type            calculated;
        value           uniform 0;
    }
    frontAndBack
    {
        type            empty;
        value           nonuniform 0();
    }
}


// ************************************************************************* //
