/*--------------------------------*- C++ -*----------------------------------*\
| =========                 |                                                 |
| \\      /  F ield         | OpenFOAM: The Open Source CFD Toolbox           |
|  \\    /   O peration     | Version:  5.0                                   |
|   \\  /    A nd           | Web:      www.OpenFOAM.org                      |
|    \\/     M anipulation  |                                                 |
\*---------------------------------------------------------------------------*/
FoamFile
{
    version     2.0;
    format      ascii;
    class       volVectorField;
    location    "7";
    object      U;
}
// * * * * * * * * * * * * * * * * * * * * * * * * * * * * * * * * * * * * * //

dimensions      [0 1 -1 0 0 0 0];

internalField   nonuniform List<vector> 
400
(
(0.00240838 -0.00370768 0)
(0.00762101 -0.00181254 0)
(-0.00268479 0.00150643 0)
(-0.0144481 0.00889541 0)
(-0.0590046 0.018894 0)
(-0.090342 0.0139829 0)
(-0.117228 0.0136602 0)
(-0.136104 0.0106179 0)
(-0.15093 0.00932258 0)
(-0.161441 0.00707267 0)
(-0.169449 0.00589621 0)
(-0.174291 0.00416282 0)
(-0.176461 0.00300833 0)
(-0.175754 -1.79468e-05 0)
(-0.167617 -0.00254744 0)
(-0.153748 -0.00805814 0)
(-0.129765 -0.0136582 0)
(-0.0973607 -0.0198363 0)
(-0.0585146 -0.0191751 0)
(-0.0123469 -0.00540716 0)
(-0.000490389 -0.00767537 0)
(-0.00921386 0.00683853 0)
(-0.0348213 0.026914 0)
(-0.0736072 0.0474479 0)
(-0.102307 0.044616 0)
(-0.122212 0.0393398 0)
(-0.138285 0.0323722 0)
(-0.151624 0.023233 0)
(-0.160826 0.017192 0)
(-0.16744 0.0104309 0)
(-0.171245 0.00594014 0)
(-0.173304 0.000585762 0)
(-0.172635 -0.00376273 0)
(-0.169919 -0.00995801 0)
(-0.162709 -0.0172545 0)
(-0.150325 -0.0290787 0)
(-0.130666 -0.0443677 0)
(-0.103044 -0.0649337 0)
(-0.0704291 -0.0789139 0)
(-0.0179772 -0.0581157 0)
(-0.00719692 0.00760676 0)
(-0.0309355 0.03661 0)
(-0.0642557 0.0615633 0)
(-0.0908659 0.0698853 0)
(-0.10729 0.062933 0)
(-0.118689 0.0533536 0)
(-0.128484 0.0406132 0)
(-0.131763 0.0320954 0)
(-0.130327 0.022719 0)
(-0.129299 0.0154412 0)
(-0.126401 0.00840654 0)
(-0.12538 0.00253914 0)
(-0.124173 -0.00354214 0)
(-0.122766 -0.0101567 0)
(-0.11878 -0.019737 0)
(-0.112471 -0.0338937 0)
(-0.100707 -0.0563829 0)
(-0.0814157 -0.0860554 0)
(-0.0621597 -0.113885 0)
(-0.0204772 -0.113919 0)
(-0.0107235 0.03234 0)
(-0.0420591 0.0662062 0)
(-0.0695864 0.0849462 0)
(-0.0863076 0.0853974 0)
(-0.094584 0.0733156 0)
(-0.0977133 0.0599853 0)
(-0.0952301 0.0450449 0)
(-0.0912336 0.0325475 0)
(-0.091357 0.0211715 0)
(-0.0884122 0.0129981 0)
(-0.0870525 0.00542845 0)
(-0.0842824 -8.32541e-06 0)
(-0.0827228 -0.00598099 0)
(-0.0810884 -0.0121449 0)
(-0.0790695 -0.0223034 0)
(-0.0763494 -0.0366471 0)
(-0.0711044 -0.059728 0)
(-0.0555487 -0.0973208 0)
(-0.0469207 -0.13609 0)
(-0.0154867 -0.146792 0)
(-0.0111724 0.0568937 0)
(-0.0417915 0.0897745 0)
(-0.0596078 0.100555 0)
(-0.0708375 0.0950589 0)
(-0.0720204 0.077918 0)
(-0.0711091 0.0611437 0)
(-0.0705873 0.0437942 0)
(-0.0723282 0.0315885 0)
(-0.0724097 0.0197353 0)
(-0.0712473 0.0111332 0)
(-0.0689275 0.00292901 0)
(-0.0656889 -0.00309876 0)
(-0.062114 -0.00960211 0)
(-0.0595356 -0.0159797 0)
(-0.0557632 -0.0263063 0)
(-0.0519714 -0.0415811 0)
(-0.0509229 -0.0634301 0)
(-0.0361645 -0.100873 0)
(-0.0406652 -0.1524 0)
(-0.00583476 -0.177956 0)
(-0.00946299 0.0798698 0)
(-0.0337602 0.108802 0)
(-0.0453514 0.113619 0)
(-0.0542222 0.101861 0)
(-0.0524422 0.0802828 0)
(-0.0543472 0.0609172 0)
(-0.0579333 0.044663 0)
(-0.0613971 0.0320577 0)
(-0.0614923 0.0192706 0)
(-0.0610008 0.00915752 0)
(-0.0581128 -0.000349073 0)
(-0.0552023 -0.00728474 0)
(-0.0508023 -0.0141834 0)
(-0.0478664 -0.0209888 0)
(-0.0435089 -0.0310101 0)
(-0.0366635 -0.0474759 0)
(-0.0383197 -0.0697162 0)
(-0.0195122 -0.10425 0)
(-0.0310183 -0.158094 0)
(-0.0029254 -0.196322 0)
(-0.00713288 0.09844 0)
(-0.0242767 0.122543 0)
(-0.0329915 0.122526 0)
(-0.0393046 0.105181 0)
(-0.0376127 0.0806581 0)
(-0.0429072 0.0628647 0)
(-0.0475568 0.0472904 0)
(-0.0506104 0.0336238 0)
(-0.0507049 0.019509 0)
(-0.0502444 0.00765719 0)
(-0.0474436 -0.00319595 0)
(-0.0449433 -0.0110627 0)
(-0.0410264 -0.0180769 0)
(-0.0381337 -0.0255074 0)
(-0.0358581 -0.0357081 0)
(-0.0267622 -0.0532866 0)
(-0.031011 -0.076243 0)
(-0.011552 -0.111537 0)
(-0.0271509 -0.164203 0)
(0.00260366 -0.214509 0)
(-0.00386588 0.110703 0)
(-0.015159 0.13323 0)
(-0.0216629 0.129953 0)
(-0.0263351 0.109253 0)
(-0.025635 0.085215 0)
(-0.032405 0.0670681 0)
(-0.0362824 0.0510118 0)
(-0.0388113 0.0357012 0)
(-0.0390413 0.0201427 0)
(-0.0387206 0.00656362 0)
(-0.0364663 -0.00545611 0)
(-0.0344205 -0.0141423 0)
(-0.0316969 -0.020908 0)
(-0.0282915 -0.0282283 0)
(-0.0282486 -0.0385868 0)
(-0.0180646 -0.0573139 0)
(-0.0248757 -0.0807184 0)
(-0.00297228 -0.113547 0)
(-0.022124 -0.16506 0)
(0.0039914 -0.224914 0)
(-0.00124586 0.118441 0)
(-0.00779343 0.139786 0)
(-0.011632 0.134484 0)
(-0.0149889 0.112299 0)
(-0.0147949 0.0868606 0)
(-0.021261 0.069891 0)
(-0.0238934 0.0538641 0)
(-0.0261995 0.0373885 0)
(-0.0265537 0.0206012 0)
(-0.0266115 0.00558401 0)
(-0.0252931 -0.00709046 0)
(-0.0238422 -0.0165001 0)
(-0.0230526 -0.0235783 0)
(-0.0197332 -0.0309974 0)
(-0.0217736 -0.0414923 0)
(-0.0109094 -0.0609768 0)
(-0.0207695 -0.086484 0)
(0.000634326 -0.119092 0)
(-0.0201757 -0.167312 0)
(0.00743915 -0.236701 0)
(0.00207708 0.120009 0)
(-0.000425563 0.14406 0)
(-0.0017571 0.138134 0)
(-0.00397077 0.115582 0)
(-0.00391414 0.0922463 0)
(-0.00936512 0.0746047 0)
(-0.0109872 0.0575112 0)
(-0.0129474 0.0398096 0)
(-0.0132481 0.0219786 0)
(-0.0136727 0.00567778 0)
(-0.0136811 -0.00740231 0)
(-0.0128476 -0.0168498 0)
(-0.0137729 -0.0240206 0)
(-0.0107455 -0.0317281 0)
(-0.015015 -0.0432769 0)
(-0.00339394 -0.0621419 0)
(-0.0159176 -0.0886947 0)
(0.00660623 -0.118864 0)
(-0.0179455 -0.166959 0)
(0.00813196 -0.243012 0)
(0.0051698 0.117317 0)
(0.00591999 0.144341 0)
(0.00768526 0.138905 0)
(0.00659796 0.117427 0)
(0.00689984 0.0926023 0)
(0.0030312 0.0752664 0)
(0.00263635 0.0583851 0)
(0.00119263 0.0406222 0)
(0.000628879 0.022686 0)
(-0.000258979 0.00627807 0)
(-0.00179738 -0.00727796 0)
(-0.0020833 -0.0169489 0)
(-0.00466865 -0.024525 0)
(-0.00231944 -0.0320742 0)
(-0.00806834 -0.0453902 0)
(0.0027836 -0.0636099 0)
(-0.01125 -0.0929388 0)
(0.0095642 -0.120881 0)
(-0.0171392 -0.166829 0)
(0.010727 -0.250129 0)
(0.00659135 0.109486 0)
(0.0130257 0.141456 0)
(0.0173904 0.138381 0)
(0.0179845 0.119422 0)
(0.0186719 0.0965082 0)
(0.0158053 0.078235 0)
(0.0159827 0.0605908 0)
(0.0151109 0.0426469 0)
(0.0144478 0.0245804 0)
(0.0136178 0.00829408 0)
(0.0110464 -0.00521153 0)
(0.00964804 -0.014889 0)
(0.0056611 -0.0229229 0)
(0.00687109 -0.0308676 0)
(0.00104465 -0.0453555 0)
(0.00933635 -0.0633136 0)
(-0.00480006 -0.0923857 0)
(0.0146284 -0.117314 0)
(-0.0168106 -0.164046 0)
(0.0124475 -0.253263 0)
(0.0104139 0.0992024 0)
(0.0194608 0.134435 0)
(0.0266213 0.133768 0)
(0.0290022 0.119746 0)
(0.0307281 0.0940788 0)
(0.0289912 0.0761456 0)
(0.029707 0.059182 0)
(0.0297779 0.042028 0)
(0.0289739 0.0248786 0)
(0.0280658 0.00945608 0)
(0.0243353 -0.00326437 0)
(0.0220542 -0.0128315 0)
(0.0167978 -0.0211403 0)
(0.0169062 -0.0299005 0)
(0.0109809 -0.0447254 0)
(0.0164459 -0.0634151 0)
(0.002668 -0.0913631 0)
(0.0180132 -0.115571 0)
(-0.0159647 -0.15926 0)
(0.0160482 -0.255164 0)
(0.0117992 0.0779904 0)
(0.0261636 0.124977 0)
(0.0371606 0.127809 0)
(0.0403497 0.1195 0)
(0.0435959 0.0972396 0)
(0.0428685 0.0764791 0)
(0.0437274 0.0593385 0)
(0.0447864 0.0433614 0)
(0.0439816 0.0277311 0)
(0.0431509 0.0132321 0)
(0.0386424 0.00114479 0)
(0.0361659 -0.00864105 0)
(0.029855 -0.0174903 0)
(0.0293548 -0.027824 0)
(0.0230066 -0.0422104 0)
(0.0264135 -0.0606118 0)
(0.0128239 -0.0855985 0)
(0.0236526 -0.106752 0)
(-0.0134012 -0.153739 0)
(0.0196192 -0.25369 0)
(0.0162443 0.0592415 0)
(0.0307015 0.109971 0)
(0.0446623 0.118401 0)
(0.0508545 0.112267 0)
(0.0561651 0.0951785 0)
(0.05803 0.074127 0)
(0.0592424 0.0562453 0)
(0.060991 0.040663 0)
(0.0601476 0.0267562 0)
(0.0599467 0.0141116 0)
(0.0550642 0.00354817 0)
(0.0530826 -0.00585208 0)
(0.0460404 -0.0143817 0)
(0.0451948 -0.0251249 0)
(0.0381641 -0.0382485 0)
(0.0391389 -0.0566452 0)
(0.0256842 -0.077909 0)
(0.0292868 -0.0982365 0)
(-0.0107465 -0.146805 0)
(0.025368 -0.252226 0)
(0.0132277 0.0215689 0)
(0.0346246 0.0944087 0)
(0.0500332 0.10892 0)
(0.0596239 0.106288 0)
(0.0679952 0.0937093 0)
(0.0735787 0.0753268 0)
(0.0765456 0.0577864 0)
(0.0799501 0.0421508 0)
(0.0792828 0.028917 0)
(0.0806474 0.0173214 0)
(0.075735 0.00793819 0)
(0.0746658 -0.000956355 0)
(0.067544 -0.00906064 0)
(0.0661491 -0.0197319 0)
(0.0580196 -0.0317563 0)
(0.0562394 -0.048657 0)
(0.040829 -0.0661943 0)
(0.0366113 -0.0836676 0)
(-0.00539377 -0.137882 0)
(0.0319847 -0.248562 0)
(-0.00011458 0.00951389 0)
(0.0270037 0.0685482 0)
(0.047808 0.0900651 0)
(0.0628617 0.0907779 0)
(0.0766189 0.0824461 0)
(0.0882581 0.0689702 0)
(0.0945653 0.0548653 0)
(0.101793 0.0411848 0)
(0.102392 0.0292368 0)
(0.105927 0.0182278 0)
(0.102243 0.00954393 0)
(0.102181 0.000899408 0)
(0.0948912 -0.00641423 0)
(0.0922709 -0.0159344 0)
(0.0818203 -0.0253769 0)
(0.0756142 -0.0389085 0)
(0.0568024 -0.0511922 0)
(0.0436563 -0.0687742 0)
(0.001343 -0.131657 0)
(0.0416331 -0.245264 0)
(-0.018809 -0.00170157 0)
(0.011782 0.0549786 0)
(0.0356228 0.0746112 0)
(0.0572374 0.0757472 0)
(0.0761784 0.0700182 0)
(0.0957045 0.0593896 0)
(0.106917 0.0487481 0)
(0.119393 0.0382907 0)
(0.12321 0.0300365 0)
(0.129203 0.021067 0)
(0.127604 0.0147236 0)
(0.128125 0.00716586 0)
(0.121335 0.00191999 0)
(0.117259 -0.00570724 0)
(0.104477 -0.0119387 0)
(0.0946356 -0.0218761 0)
(0.0717609 -0.0303955 0)
(0.0519804 -0.0503608 0)
(0.0163293 -0.124155 0)
(0.054558 -0.233194 0)
(-0.02566 0.0229353 0)
(-0.0190049 0.019659 0)
(0.0103221 0.0391414 0)
(0.0406419 0.0412035 0)
(0.0651892 0.0405911 0)
(0.0910142 0.0355132 0)
(0.107419 0.0308735 0)
(0.123449 0.0232564 0)
(0.132071 0.0192092 0)
(0.139508 0.0131695 0)
(0.14199 0.0107172 0)
(0.142187 0.00552172 0)
(0.138403 0.00418973 0)
(0.133611 -0.000648622 0)
(0.121949 -0.00211073 0)
(0.112261 -0.00880057 0)
(0.0893079 -0.0129109 0)
(0.0769532 -0.0387307 0)
(0.0560188 -0.111267 0)
(0.0789598 -0.182965 0)
(0.0358963 0.032717 0)
(0.0404086 0.0187458 0)
(0.0570852 0.0172732 0)
(0.0906376 0.0174007 0)
(0.115294 0.0196701 0)
(0.145112 0.0179019 0)
(0.167055 0.0175375 0)
(0.189847 0.014904 0)
(0.206275 0.0140442 0)
(0.221911 0.0119192 0)
(0.23296 0.0112633 0)
(0.242802 0.00965146 0)
(0.249702 0.00922262 0)
(0.254593 0.00797737 0)
(0.258694 0.00771994 0)
(0.258868 0.00604581 0)
(0.254313 0.00491094 0)
(0.240949 -0.00215529 0)
(0.201914 -0.0144394 0)
(0.148806 -0.0340318 0)
)
;

boundaryField
{
    movingWall
    {
        type            fixedValue;
        value           uniform (1 0 0);
    }
    fixedWalls
    {
        type            noSlip;
    }
    frontAndBack
    {
        type            empty;
    }
}


// ************************************************************************* //
