/*--------------------------------*- C++ -*----------------------------------*\
| =========                 |                                                 |
| \\      /  F ield         | OpenFOAM: The Open Source CFD Toolbox           |
|  \\    /   O peration     | Version:  5.0                                   |
|   \\  /    A nd           | Web:      www.OpenFOAM.org                      |
|    \\/     M anipulation  |                                                 |
\*---------------------------------------------------------------------------*/
FoamFile
{
    version     2.0;
    format      ascii;
    class       volScalarField;
    location    "7";
    object      yPlus;
}
// * * * * * * * * * * * * * * * * * * * * * * * * * * * * * * * * * * * * * //

dimensions      [0 0 0 0 0 0 0];

internalField   uniform 0;

boundaryField
{
    movingWall
    {
        type            calculated;
        value           nonuniform List<scalar> 
20
(
15.5295
15.4901
15.3547
15.0792
14.8738
14.6208
14.432
14.2328
14.0877
13.9479
13.8485
13.7592
13.6963
13.6515
13.6138
13.6121
13.6538
13.7755
14.1264
14.5934
)
;
    }
    fixedWalls
    {
        type            calculated;
        value           nonuniform List<scalar> 
60
(
1.05133
1.38663
1.61801
2.91854
3.80724
4.4841
4.96735
5.26238
5.44168
5.47784
5.41828
5.23651
4.99368
4.44066
3.91881
2.51505
1.54229
2.17289
2.93326
3.48457
1.83569
3.89977
5.37924
6.07467
6.6718
7.00614
7.32333
7.49916
7.69444
7.7966
7.91137
7.96192
7.99481
7.97571
7.96082
7.91536
7.88626
7.73775
7.05825
6.17754
1.05133
1.39943
0.877289
2.05955
3.9356
4.78063
5.43188
5.84204
6.14853
6.35602
6.5106
6.60191
6.64241
6.62861
6.47372
6.20401
5.71143
4.984
3.92353
1.83569
)
;
    }
    frontAndBack
    {
        type            empty;
    }
}


// ************************************************************************* //
