/*--------------------------------*- C++ -*----------------------------------*\
| =========                 |                                                 |
| \\      /  F ield         | OpenFOAM: The Open Source CFD Toolbox           |
|  \\    /   O peration     | Version:  5.0                                   |
|   \\  /    A nd           | Web:      www.OpenFOAM.org                      |
|    \\/     M anipulation  |                                                 |
\*---------------------------------------------------------------------------*/
FoamFile
{
    version     2.0;
    format      ascii;
    class       volScalarField;
    location    "7";
    object      epsilon;
}
// * * * * * * * * * * * * * * * * * * * * * * * * * * * * * * * * * * * * * //

dimensions      [0 2 -3 0 0 0 0];

internalField   nonuniform List<scalar> 
400
(
1.63861e-05
5.43985e-05
0.000244082
0.000540594
0.0007496
0.000906007
0.00103263
0.00115334
0.00125908
0.00136719
0.00146847
0.00157551
0.00168325
0.00175908
0.00179428
0.00179892
0.00167414
0.00132945
0.000816752
0.000588834
7.73446e-05
0.000223568
0.000614875
0.000902578
0.0009765
0.00100761
0.00101877
0.00106136
0.0011076
0.0011899
0.001291
0.00142327
0.00158036
0.00176749
0.0019759
0.00218848
0.00229138
0.00230376
0.00183325
0.00121034
0.000265776
0.00070537
0.00094019
0.000978781
0.000971428
0.000967436
0.0009631
0.00100159
0.00106
0.00113592
0.00122091
0.00131549
0.00142675
0.00156611
0.00174043
0.00195518
0.00215058
0.00223255
0.00207121
0.00156671
0.000612789
0.000980646
0.00101542
0.000954177
0.00091508
0.00088594
0.000881918
0.000909459
0.000939447
0.000971633
0.00100958
0.00106667
0.00115697
0.00129066
0.00149154
0.00176849
0.00207571
0.00221512
0.00218827
0.00179899
0.00089457
0.00112107
0.000996089
0.000884992
0.000809362
0.000771011
0.000751733
0.000740474
0.000726753
0.000720931
0.000723715
0.000759331
0.000836628
0.000976775
0.00121101
0.00156888
0.00204751
0.00233644
0.00237482
0.00197404
0.00106067
0.00111952
0.000939031
0.000787147
0.00070676
0.000654118
0.000609024
0.000562302
0.000515862
0.000485604
0.000473898
0.00048395
0.000548472
0.000680161
0.000923412
0.0013355
0.00196008
0.00250343
0.00263839
0.0021153
0.00109586
0.00108237
0.000851106
0.00069989
0.00061627
0.000549627
0.000483989
0.000416638
0.000356031
0.000315041
0.00029713
0.000295094
0.000339991
0.000448378
0.000669519
0.00109104
0.00181723
0.00266196
0.00293955
0.00222547
0.00108029
0.00100144
0.000769512
0.000627782
0.000543146
0.000467575
0.000390878
0.000316394
0.000254388
0.00021299
0.000193908
0.000189694
0.000216658
0.000294425
0.000473958
0.000862604
0.00162098
0.00275007
0.0033033
0.00231527
0.00103943
0.000905153
0.000698383
0.000570786
0.000488246
0.0004095
0.000329647
0.000255963
0.000198061
0.000160743
0.00014362
0.00013984
0.000157127
0.000209769
0.000344446
0.000684531
0.00145961
0.00277696
0.00366236
0.00237844
0.000956854
0.000823935
0.000641252
0.00052816
0.000449678
0.000372086
0.000294205
0.000224565
0.000172059
0.000138778
0.000123107
0.000120226
0.000132482
0.00017012
0.000269398
0.000549508
0.00129376
0.00277791
0.00404323
0.00242621
0.000870134
0.000752623
0.000595139
0.000495681
0.000423096
0.000350296
0.000276917
0.000213973
0.000166871
0.000136015
0.000119513
0.000116139
0.000125529
0.000155397
0.00023468
0.000466635
0.00115368
0.00273428
0.00438323
0.0024494
0.000795092
0.000708414
0.00056377
0.000474422
0.000407092
0.000339382
0.00027478
0.000216546
0.000171764
0.000142143
0.000126021
0.000122446
0.000128897
0.000153068
0.000223352
0.000427231
0.0010481
0.00269632
0.00468232
0.0024594
0.000713097
0.000668935
0.000544614
0.000460415
0.000398903
0.000339651
0.000279045
0.000225479
0.000184625
0.00015698
0.000140934
0.000137504
0.000143238
0.000164548
0.000225264
0.000413864
0.000996582
0.00267126
0.00483629
0.00246103
0.000637925
0.000650756
0.000549507
0.000463819
0.000402533
0.000345422
0.000290184
0.000242889
0.000205636
0.000179706
0.000163338
0.000160288
0.00016613
0.00018776
0.000247873
0.000424794
0.000978619
0.00266292
0.00489424
0.00245278
0.000550585
0.000623596
0.000560042
0.000477764
0.000416464
0.000361159
0.000310261
0.000266785
0.000232461
0.000208627
0.000192272
0.00019069
0.000197537
0.00022197
0.000287478
0.000472536
0.00100897
0.00269547
0.00483877
0.00241669
0.000463168
0.000610419
0.00058503
0.000518274
0.000453313
0.000396816
0.000346508
0.000303575
0.000269286
0.000245983
0.000229462
0.000230202
0.000240102
0.000272246
0.000353933
0.000572495
0.00113347
0.00281533
0.00456371
0.00233701
0.000361664
0.000556356
0.000592342
0.000572096
0.000525217
0.000469299
0.000415889
0.000369171
0.000331953
0.000306294
0.000293187
0.000297686
0.000317145
0.00037153
0.000498047
0.000813384
0.00146193
0.00310915
0.00410337
0.00220907
0.000240866
0.000494877
0.000653965
0.000705201
0.000693044
0.000649244
0.00058902
0.00053564
0.000495661
0.000474116
0.000480191
0.000508357
0.000573687
0.000711522
0.000989245
0.00163157
0.00244294
0.0037295
0.00382625
0.00202637
0.00026956
0.000507572
0.000872474
0.0010448
0.00111277
0.00111732
0.00111123
0.00111717
0.0011475
0.00121875
0.00135984
0.00159119
0.00190592
0.00242424
0.00306705
0.0040667
0.00470173
0.00448229
0.00379897
0.00177169
0.000194424
0.000307952
0.000568928
0.000820496
0.00101842
0.00114677
0.00122331
0.00127227
0.00129722
0.00132018
0.00133241
0.00135643
0.00137566
0.0014178
0.00144765
0.00151604
0.00159029
0.00166911
0.00165018
0.00147104
)
;

boundaryField
{
    movingWall
    {
        Cmu             0.09;
        kappa           0.41;
        E               9.8;
        type            epsilonWallFunction;
        value           nonuniform List<scalar> 
20
(
0.000194424
0.000307952
0.000568928
0.000820496
0.00101842
0.00114677
0.00122331
0.00127227
0.00129722
0.00132018
0.00133241
0.00135643
0.00137566
0.0014178
0.00144765
0.00151604
0.00159029
0.00166911
0.00165018
0.00147104
)
;
    }
    fixedWalls
    {
        Cmu             0.09;
        kappa           0.41;
        E               9.8;
        type            epsilonWallFunction;
        value           nonuniform List<scalar> 
60
(
1.63861e-05
7.73446e-05
0.000265776
0.000612789
0.00089457
0.00106067
0.00109586
0.00108029
0.00103943
0.000956854
0.000870134
0.000795092
0.000713097
0.000637925
0.000550585
0.000463168
0.000361664
0.000240866
0.00026956
0.000194424
0.000588834
0.00121034
0.00156671
0.00179899
0.00197404
0.0021153
0.00222547
0.00231527
0.00237844
0.00242621
0.0024494
0.0024594
0.00246103
0.00245278
0.00241669
0.00233701
0.00220907
0.00202637
0.00177169
0.00147104
1.63861e-05
5.43985e-05
0.000244082
0.000540594
0.0007496
0.000906007
0.00103263
0.00115334
0.00125908
0.00136719
0.00146847
0.00157551
0.00168325
0.00175908
0.00179428
0.00179892
0.00167414
0.00132945
0.000816752
0.000588834
)
;
    }
    frontAndBack
    {
        type            empty;
    }
}


// ************************************************************************* //
