/*--------------------------------*- C++ -*----------------------------------*\
| =========                 |                                                 |
| \\      /  F ield         | OpenFOAM: The Open Source CFD Toolbox           |
|  \\    /   O peration     | Version:  5.0                                   |
|   \\  /    A nd           | Web:      www.OpenFOAM.org                      |
|    \\/     M anipulation  |                                                 |
\*---------------------------------------------------------------------------*/
FoamFile
{
    version     2.0;
    format      ascii;
    class       volScalarField;
    location    "7";
    object      k;
}
// * * * * * * * * * * * * * * * * * * * * * * * * * * * * * * * * * * * * * //

dimensions      [0 2 -2 0 0 0 0];

internalField   nonuniform List<scalar> 
400
(
5.12807e-06
1.70266e-05
7.63377e-05
0.000168987
0.000234283
0.000283157
0.000322725
0.00036045
0.000393494
0.000427284
0.000458936
0.000492394
0.000526068
0.000549768
0.000560771
0.000562221
0.000523225
0.000415498
0.000255254
0.00018402
2.41956e-05
8.88462e-05
0.000201504
0.000355073
0.000423644
0.000501086
0.000546273
0.000610669
0.000662427
0.000723281
0.000780545
0.000840585
0.000894976
0.000952576
0.00100489
0.00103159
0.00103828
0.000937999
0.000622523
0.00037825
8.31067e-05
0.000289447
0.000459803
0.000543475
0.00060305
0.000655782
0.000696971
0.000747865
0.000792846
0.000839747
0.000882547
0.000923527
0.0009628
0.00100805
0.00105397
0.00108937
0.00110218
0.00105714
0.000770801
0.000489626
0.000191595
0.000497548
0.000591538
0.000633009
0.000669306
0.000698047
0.000728349
0.000762428
0.000793567
0.000824708
0.000849205
0.000876186
0.000913076
0.000962943
0.00102901
0.00109972
0.00113344
0.00113655
0.000912491
0.000562221
0.000279666
0.000611592
0.000648712
0.000656026
0.000672932
0.000693015
0.000714541
0.000728033
0.000731942
0.00072934
0.00072905
0.000746008
0.000784668
0.00085047
0.000951891
0.00108509
0.00118263
0.00120738
0.0010385
0.000616926
0.000331555
0.00065123
0.000656888
0.000653295
0.000664012
0.00066943
0.000665386
0.000641876
0.000613745
0.000594673
0.000587036
0.000592209
0.000629801
0.000703747
0.00082859
0.00101134
0.00120797
0.00128982
0.00117673
0.000661079
0.000342541
0.000645935
0.000650764
0.000642262
0.000639284
0.000621953
0.000593077
0.00054999
0.000508869
0.000479931
0.00046731
0.000466172
0.000497638
0.0005693
0.00070086
0.000915281
0.00120996
0.00136795
0.00130722
0.000695511
0.000337671
0.000629778
0.000635082
0.000619652
0.000606211
0.000575989
0.000532024
0.000479521
0.000433354
0.000400825
0.000385783
0.00038293
0.000406212
0.00046712
0.000587888
0.000806969
0.00115281
0.00143494
0.00144673
0.000723582
0.000324899
0.00059646
0.000608127
0.0005947
0.000576661
0.000539624
0.000488736
0.000433621
0.000387345
0.00035489
0.000339286
0.000335865
0.000352787
0.00040119
0.000505353
0.000710993
0.00107504
0.0014804
0.0015682
0.000743332
0.000299092
0.0005672
0.000582467
0.000572567
0.000553356
0.000514452
0.000462283
0.000408434
0.00036425
0.000333433
0.000317589
0.000314367
0.000327645
0.000366322
0.000452571
0.000640924
0.00100438
0.00150069
0.00169217
0.000758273
0.000271991
0.000527806
0.000553762
0.000550581
0.000534131
0.000497614
0.000448446
0.00039835
0.000357504
0.000328444
0.000311761
0.000308284
0.000319217
0.000351674
0.000426417
0.000593848
0.000947416
0.00150698
0.00179545
0.00076553
0.00024854
0.000494455
0.000532161
0.000533044
0.000520989
0.000488901
0.000444112
0.000399221
0.000360583
0.000332736
0.000316235
0.000312355
0.000320285
0.000348472
0.000417247
0.000570879
0.00090159
0.00150768
0.00188169
0.000768665
0.000222919
0.00045031
0.000505457
0.000513527
0.000506808
0.000483213
0.000445223
0.000404366
0.000369633
0.000344161
0.000328451
0.000325638
0.000332914
0.000358199
0.000419773
0.000563682
0.000876837
0.00150438
0.00192336
0.000769179
0.00019943
0.000421758
0.000490331
0.000503231
0.000498691
0.000482337
0.000449657
0.000415047
0.000384823
0.000362213
0.000347517
0.00034649
0.000354145
0.000379576
0.000439571
0.000574728
0.000868461
0.00149833
0.00193638
0.00076662
0.000172142
0.000374936
0.000464378
0.000491615
0.000493272
0.000484113
0.000459811
0.000430324
0.000404251
0.000384865
0.000372026
0.000372827
0.000381854
0.000409006
0.000470146
0.000604763
0.000877108
0.00149498
0.00189447
0.000755326
0.000144823
0.000346605
0.000450644
0.000492585
0.000499814
0.000493906
0.000477735
0.000453215
0.000430176
0.000412568
0.000401435
0.000403404
0.000414558
0.000445372
0.000511814
0.000659279
0.000913592
0.00149451
0.00180067
0.000730431
0.000113115
0.00028449
0.000414106
0.000494568
0.00051952
0.000517797
0.000508013
0.000487186
0.000465666
0.000448481
0.000440584
0.000444828
0.000460842
0.000501119
0.000582029
0.000764516
0.00101098
0.0015223
0.00163814
0.000690436
7.53409e-05
0.000249859
0.00042451
0.000526668
0.00058476
0.000586116
0.000579613
0.000563361
0.000545016
0.000532377
0.000535186
0.00054979
0.000584511
0.000659033
0.000780333
0.00104464
0.00131195
0.00159839
0.00146185
0.000633341
8.42805e-05
0.000271324
0.000480283
0.000602493
0.00068064
0.00071467
0.000736619
0.000753089
0.000778811
0.000816637
0.000878768
0.000966941
0.00108845
0.00126666
0.00147405
0.00177668
0.00186314
0.00173013
0.00135835
0.000553746
6.07904e-05
9.62759e-05
0.000177851
0.000256497
0.000318362
0.000358473
0.000382392
0.000397701
0.0004055
0.000412675
0.000416498
0.000424002
0.000430006
0.000443167
0.000452489
0.00047385
0.000497053
0.000521677
0.00051576
0.000459766
)
;

boundaryField
{
    movingWall
    {
        type            kqRWallFunction;
        value           nonuniform List<scalar> 
20
(
6.07904e-05
9.62759e-05
0.000177851
0.000256497
0.000318362
0.000358473
0.000382392
0.000397701
0.0004055
0.000412675
0.000416498
0.000424002
0.000430006
0.000443167
0.000452489
0.00047385
0.000497053
0.000521677
0.00051576
0.000459766
)
;
    }
    fixedWalls
    {
        type            kqRWallFunction;
        value           nonuniform List<scalar> 
60
(
5.12807e-06
2.41956e-05
8.31067e-05
0.000191595
0.000279666
0.000331555
0.000342541
0.000337671
0.000324899
0.000299092
0.000271991
0.00024854
0.000222919
0.00019943
0.000172142
0.000144823
0.000113115
7.53409e-05
8.42805e-05
6.07904e-05
0.00018402
0.00037825
0.000489626
0.000562221
0.000616926
0.000661079
0.000695511
0.000723582
0.000743332
0.000758273
0.00076553
0.000768665
0.000769179
0.00076662
0.000755326
0.000730431
0.000690436
0.000633341
0.000553746
0.000459766
5.12807e-06
1.70266e-05
7.63377e-05
0.000168987
0.000234283
0.000283157
0.000322725
0.00036045
0.000393494
0.000427284
0.000458936
0.000492394
0.000526068
0.000549768
0.000560771
0.000562221
0.000523225
0.000415498
0.000255254
0.00018402
)
;
    }
    frontAndBack
    {
        type            empty;
    }
}


// ************************************************************************* //
