/*--------------------------------*- C++ -*----------------------------------*\
| =========                 |                                                 |
| \\      /  F ield         | OpenFOAM: The Open Source CFD Toolbox           |
|  \\    /   O peration     | Version:  5.0                                   |
|   \\  /    A nd           | Web:      www.OpenFOAM.org                      |
|    \\/     M anipulation  |                                                 |
\*---------------------------------------------------------------------------*/
FoamFile
{
    version     2.0;
    format      ascii;
    class       volScalarField;
    location    "7";
    object      nut;
}
// * * * * * * * * * * * * * * * * * * * * * * * * * * * * * * * * * * * * * //

dimensions      [0 2 -1 0 0 0 0];

internalField   nonuniform List<scalar> 
400
(
1.44435e-07
4.79635e-07
2.14875e-06
4.75419e-06
6.59013e-06
7.96465e-06
9.07746e-06
1.01385e-05
1.10679e-05
1.20183e-05
1.29087e-05
1.38498e-05
1.47972e-05
1.54638e-05
1.57734e-05
1.58142e-05
1.47173e-05
1.16871e-05
7.17958e-06
5.17582e-06
6.81219e-07
3.17768e-06
5.94322e-06
1.25717e-05
1.65414e-05
2.24273e-05
2.63625e-05
3.16221e-05
3.56561e-05
3.95683e-05
4.24728e-05
4.46806e-05
4.56152e-05
4.62047e-05
4.59954e-05
4.37634e-05
4.2342e-05
3.43724e-05
1.90253e-05
1.06388e-05
2.33883e-06
1.06896e-05
2.02381e-05
2.71591e-05
3.36929e-05
4.00073e-05
4.53942e-05
5.02573e-05
5.33722e-05
5.58715e-05
5.74162e-05
5.83516e-05
5.84745e-05
5.83965e-05
5.74435e-05
5.46266e-05
5.08382e-05
4.50517e-05
2.58168e-05
1.37715e-05
5.39136e-06
2.27196e-05
3.10142e-05
3.77949e-05
4.40588e-05
4.95002e-05
5.4137e-05
5.75251e-05
6.03306e-05
6.30001e-05
6.42878e-05
6.47748e-05
6.48537e-05
6.46595e-05
6.38923e-05
6.15471e-05
5.57028e-05
5.24832e-05
3.42451e-05
1.58135e-05
7.86879e-06
3.00286e-05
3.80232e-05
4.37668e-05
5.03549e-05
5.60618e-05
6.1127e-05
6.4422e-05
6.63451e-05
6.64062e-05
6.60981e-05
6.59627e-05
6.62341e-05
6.66448e-05
6.73393e-05
6.7544e-05
6.14767e-05
5.61538e-05
4.08716e-05
1.73522e-05
9.3277e-06
3.4094e-05
4.13567e-05
4.87983e-05
5.61464e-05
6.16591e-05
6.54268e-05
6.59439e-05
6.57181e-05
6.55416e-05
6.54466e-05
6.52217e-05
6.50871e-05
6.55337e-05
6.69155e-05
6.8927e-05
6.70004e-05
5.98092e-05
4.72344e-05
1.85942e-05
9.63632e-06
3.46931e-05
4.47823e-05
5.30441e-05
5.96842e-05
6.33417e-05
6.54079e-05
6.5342e-05
6.54585e-05
6.58011e-05
6.61464e-05
6.6279e-05
6.55544e-05
6.5055e-05
6.60301e-05
6.91049e-05
7.25056e-05
6.3268e-05
5.23188e-05
1.95627e-05
9.49928e-06
3.56446e-05
4.71723e-05
5.50465e-05
6.08938e-05
6.38586e-05
6.51724e-05
6.54079e-05
6.64405e-05
6.78881e-05
6.90769e-05
6.95708e-05
6.85447e-05
6.66998e-05
6.56283e-05
6.7943e-05
7.37874e-05
6.73851e-05
5.70257e-05
2.03525e-05
9.13999e-06
3.5374e-05
4.76582e-05
5.57654e-05
6.12979e-05
6.39986e-05
6.52142e-05
6.61126e-05
6.81773e-05
7.05174e-05
7.21371e-05
7.26009e-05
7.12879e-05
6.90562e-05
6.67286e-05
6.6463e-05
7.12611e-05
7.10282e-05
6.04346e-05
2.09082e-05
8.41405e-06
3.51416e-05
4.76163e-05
5.58636e-05
6.12846e-05
6.40162e-05
6.53745e-05
6.68566e-05
6.94005e-05
7.21004e-05
7.37379e-05
7.3981e-05
7.29277e-05
7.0993e-05
6.84262e-05
6.72793e-05
7.01755e-05
7.29636e-05
6.37387e-05
2.13288e-05
7.65181e-06
3.3313e-05
4.63736e-05
5.50405e-05
6.06873e-05
6.36197e-05
6.53602e-05
6.67442e-05
6.89323e-05
7.13805e-05
7.31932e-05
7.3649e-05
7.30584e-05
7.16273e-05
6.97326e-05
6.80167e-05
7.00223e-05
7.47502e-05
6.61907e-05
2.15332e-05
6.99227e-06
3.10606e-05
4.52093e-05
5.39019e-05
6.00078e-05
6.33863e-05
6.46014e-05
6.62398e-05
6.81273e-05
7.01e-05
7.142e-05
7.17121e-05
7.16264e-05
7.13993e-05
7.01519e-05
6.86543e-05
6.98003e-05
7.58729e-05
6.80581e-05
2.16216e-05
6.27176e-06
2.72823e-05
4.22203e-05
5.1549e-05
5.79511e-05
6.1871e-05
6.39328e-05
6.52659e-05
6.66028e-05
6.7908e-05
6.88918e-05
6.9406e-05
6.96383e-05
7.01776e-05
7.04012e-05
6.90961e-05
6.94332e-05
7.62501e-05
6.88412e-05
2.16362e-05
5.61115e-06
2.46009e-05
3.93775e-05
4.91393e-05
5.56038e-05
6.06168e-05
6.27093e-05
6.38305e-05
6.48136e-05
6.57066e-05
6.65437e-05
6.74101e-05
6.79447e-05
6.90615e-05
7.01572e-05
6.99825e-05
6.93632e-05
7.58748e-05
6.89507e-05
2.15648e-05
4.84384e-06
2.02886e-05
3.4655e-05
4.55281e-05
5.25821e-05
5.84034e-05
6.13302e-05
6.24701e-05
6.32695e-05
6.38983e-05
6.47848e-05
6.56038e-05
6.64337e-05
6.78277e-05
6.91996e-05
6.96591e-05
6.86229e-05
7.46236e-05
6.67551e-05
2.12467e-05
4.07548e-06
1.77127e-05
3.12415e-05
4.21352e-05
4.95977e-05
5.53276e-05
5.92794e-05
6.08955e-05
6.18473e-05
6.22772e-05
6.32065e-05
6.3623e-05
6.44193e-05
6.55733e-05
6.6611e-05
6.83298e-05
6.62731e-05
7.1402e-05
6.3943e-05
2.05466e-05
3.18404e-06
1.30925e-05
2.60552e-05
3.84793e-05
4.62496e-05
5.14176e-05
5.58489e-05
5.78635e-05
5.87916e-05
5.91007e-05
5.95876e-05
5.9823e-05
6.02681e-05
6.08318e-05
6.12155e-05
6.46726e-05
6.29215e-05
6.70815e-05
5.88579e-05
1.94214e-05
2.12094e-06
1.13537e-05
2.48006e-05
3.54e-05
4.44055e-05
4.76213e-05
5.13321e-05
5.33264e-05
5.39356e-05
5.38017e-05
5.36831e-05
5.35141e-05
5.35985e-05
5.49374e-05
5.53985e-05
6.01966e-05
6.34112e-05
6.16532e-05
5.02657e-05
1.78156e-05
2.3716e-06
1.30533e-05
2.37949e-05
3.1269e-05
3.74691e-05
4.11412e-05
4.39466e-05
4.56894e-05
4.75721e-05
4.92477e-05
5.11096e-05
5.28835e-05
5.5944e-05
5.95644e-05
6.37595e-05
6.98581e-05
6.64472e-05
6.01035e-05
4.3712e-05
1.55767e-05
1.71065e-06
2.70891e-06
5.00375e-06
7.21659e-06
8.95694e-06
1.0085e-05
1.07578e-05
1.11886e-05
1.1408e-05
1.16099e-05
1.17173e-05
1.19283e-05
1.20971e-05
1.2467e-05
1.2729e-05
1.33295e-05
1.39821e-05
1.46745e-05
1.4508e-05
1.29328e-05
)
;

boundaryField
{
    movingWall
    {
        type            nutkWallFunction;
        Cmu             0.09;
        kappa           0.41;
        E               9.8;
        value           uniform 0;
    }
    fixedWalls
    {
        type            nutkWallFunction;
        Cmu             0.09;
        kappa           0.41;
        E               9.8;
        value           uniform 0;
    }
    frontAndBack
    {
        type            empty;
    }
}


// ************************************************************************* //
