/*--------------------------------*- C++ -*----------------------------------*\
| =========                 |                                                 |
| \\      /  F ield         | OpenFOAM: The Open Source CFD Toolbox           |
|  \\    /   O peration     | Version:  5.0                                   |
|   \\  /    A nd           | Web:      www.OpenFOAM.org                      |
|    \\/     M anipulation  |                                                 |
\*---------------------------------------------------------------------------*/
FoamFile
{
    version     2.0;
    format      ascii;
    class       volScalarField;
    location    "7";
    object      p;
}
// * * * * * * * * * * * * * * * * * * * * * * * * * * * * * * * * * * * * * //

dimensions      [0 2 -2 0 0 0 0];

internalField   nonuniform List<scalar> 
400
(
6.72496e-08
-7.01603e-05
-0.000144085
-0.000302336
-0.00101866
-0.00230299
-0.00384202
-0.00533269
-0.00654685
-0.00736239
-0.00768132
-0.00741842
-0.00654782
-0.00504622
-0.00290769
-0.000248937
0.00264694
0.00521706
0.00681505
0.00715921
6.91695e-05
-1.50551e-05
-0.000193675
-0.00071942
-0.00170163
-0.00308315
-0.00460012
-0.00602561
-0.00719488
-0.00799469
-0.00832928
-0.00815135
-0.00742652
-0.00608995
-0.00414426
-0.00165203
0.00116086
0.00383476
0.00574606
0.00651789
0.000236676
-6.25239e-05
-0.000611384
-0.0015435
-0.00284998
-0.00435679
-0.00586793
-0.00723883
-0.00836022
-0.00910948
-0.00942613
-0.0092816
-0.00864805
-0.00751232
-0.00585696
-0.00370721
-0.00118639
0.00142036
0.00362163
0.00474155
5.08662e-05
-0.000461995
-0.00141182
-0.00274596
-0.00431201
-0.00591742
-0.00741478
-0.0086971
-0.00967604
-0.0103087
-0.0105748
-0.0104575
-0.00993391
-0.00899236
-0.00762204
-0.00583329
-0.00368486
-0.00133437
0.000859971
0.00204517
-0.000670033
-0.00136311
-0.00259648
-0.0041646
-0.00584032
-0.00744391
-0.00885916
-0.0100142
-0.0108681
-0.0114086
-0.0116304
-0.0115288
-0.0110966
-0.0103286
-0.00921798
-0.00776768
-0.00600442
-0.00400629
-0.00201867
-0.000901586
-0.0019
-0.00267195
-0.00400436
-0.00561577
-0.0072682
-0.00879104
-0.0100901
-0.0111206
-0.0118686
-0.0123333
-0.0125182
-0.0124282
-0.0120675
-0.011439
-0.010542
-0.00937783
-0.00795953
-0.00633039
-0.00472544
-0.00367145
-0.00334266
-0.00412067
-0.00540937
-0.006948
-0.00850097
-0.00990564
-0.0110828
-0.0120026
-0.0126623
-0.0130678
-0.0132272
-0.0131496
-0.0128443
-0.0123208
-0.0115862
-0.0106445
-0.0095072
-0.00820369
-0.00696564
-0.00603121
-0.00469719
-0.00543255
-0.00661934
-0.008047
-0.00947843
-0.010763
-0.0118318
-0.0126621
-0.0132551
-0.0136192
-0.0137639
-0.0136988
-0.0134349
-0.0129858
-0.012366
-0.0115861
-0.010662
-0.00961763
-0.00868177
-0.00785947
-0.005757
-0.00644415
-0.0075189
-0.00884111
-0.0101636
-0.0113503
-0.0123381
-0.013106
-0.0136556
-0.0139947
-0.0141322
-0.0140771
-0.0138401
-0.0134369
-0.012889
-0.0122155
-0.0114456
-0.0105799
-0.00986261
-0.00914105
-0.00644592
-0.00705561
-0.00804469
-0.0092936
-0.0105375
-0.0116615
-0.0126025
-0.0133378
-0.0138663
-0.0141944
-0.0143298
-0.01428
-0.0140554
-0.0136728
-0.0131588
-0.0125393
-0.0118771
-0.0111012
-0.0105636
-0.00987025
-0.00672443
-0.00726017
-0.00819339
-0.00939301
-0.0105951
-0.0116945
-0.0126238
-0.0133552
-0.0138839
-0.0142136
-0.0143505
-0.0143009
-0.0140749
-0.0136896
-0.0131762
-0.0125596
-0.0119727
-0.0111807
-0.0108242
-0.0100532
-0.00658449
-0.00707845
-0.00797351
-0.00914639
-0.010342
-0.0114495
-0.0123983
-0.013153
-0.0137023
-0.0140463
-0.0141886
-0.0141345
-0.0138937
-0.0134842
-0.0129406
-0.0123071
-0.0116991
-0.0108587
-0.0106931
-0.00967808
-0.00609887
-0.00657419
-0.00743976
-0.00858128
-0.00979133
-0.0109316
-0.0119258
-0.0127283
-0.0133182
-0.0136894
-0.0138425
-0.0137805
-0.0135135
-0.0130605
-0.0124617
-0.0117685
-0.011086
-0.0101992
-0.0101427
-0.00876453
-0.00538223
-0.0058247
-0.00664509
-0.007739
-0.00895817
-0.010146
-0.0112079
-0.0120816
-0.0127328
-0.0131464
-0.0133181
-0.0132482
-0.0129463
-0.0124334
-0.0117559
-0.0109655
-0.010178
-0.00922594
-0.00915363
-0.007373
-0.00459026
-0.00495813
-0.00567226
-0.00668002
-0.00788297
-0.00912035
-0.0102656
-0.0112309
-0.0119635
-0.012436
-0.0126377
-0.0125652
-0.0122255
-0.0116411
-0.0108649
-0.00994517
-0.00901859
-0.00793635
-0.00772949
-0.00554416
-0.00388752
-0.00408121
-0.00458408
-0.00544662
-0.00660755
-0.0078919
-0.00913227
-0.0102078
-0.0110428
-0.0115938
-0.0118416
-0.0117783
-0.0114132
-0.0107574
-0.00986951
-0.00878684
-0.00766201
-0.00634369
-0.00585611
-0.00307534
-0.00342875
-0.00330756
-0.00348275
-0.00414159
-0.0052364
-0.00655977
-0.00789939
-0.0090976
-0.0100529
-0.0107027
-0.0110185
-0.0109861
-0.0106155
-0.00989811
-0.00889085
-0.00760029
-0.00616889
-0.00442754
-0.003298
0.000851604
-0.00321388
-0.00261976
-0.00241141
-0.00285096
-0.00387125
-0.00522332
-0.00665747
-0.00798569
-0.0090781
-0.00984933
-0.010257
-0.0102767
-0.00991631
-0.00916551
-0.00804796
-0.00650124
-0.00461733
-0.0020761
0.000556405
0.00805201
-0.00318194
-0.00203114
-0.00155693
-0.00183319
-0.0027852
-0.00415803
-0.00567477
-0.00712004
-0.00833621
-0.00922621
-0.00973302
-0.00983305
-0.00950785
-0.00873628
-0.00748183
-0.00565451
-0.00315483
0.000940867
0.00689578
0.0198476
-0.00376198
-0.00072815
-0.000138712
-0.000594526
-0.0016036
-0.00303006
-0.00465257
-0.00622139
-0.0075587
-0.00855028
-0.00913888
-0.00928662
-0.00897237
-0.0081667
-0.00682924
-0.00478181
-0.00119871
0.00547234
0.0172579
0.0351182
)
;

boundaryField
{
    movingWall
    {
        type            zeroGradient;
    }
    fixedWalls
    {
        type            zeroGradient;
    }
    frontAndBack
    {
        type            empty;
    }
}


// ************************************************************************* //
