/*--------------------------------*- C++ -*----------------------------------*\
| =========                 |                                                 |
| \\      /  F ield         | OpenFOAM: The Open Source CFD Toolbox           |
|  \\    /   O peration     | Version:  5.0                                   |
|   \\  /    A nd           | Web:      www.OpenFOAM.org                      |
|    \\/     M anipulation  |                                                 |
\*---------------------------------------------------------------------------*/
FoamFile
{
    version     2.0;
    format      ascii;
    class       surfaceScalarField;
    location    "7";
    object      phi;
}
// * * * * * * * * * * * * * * * * * * * * * * * * * * * * * * * * * * * * * //

dimensions      [0 3 -1 0 0 0 0];

internalField   nonuniform List<scalar> 
760
(
1.32902e-07
-1.32909e-07
-8.75193e-08
2.20422e-07
-8.2667e-07
7.3915e-07
-2.05213e-06
1.22546e-06
-3.39997e-06
1.34784e-06
-4.61167e-06
1.2117e-06
-5.64371e-06
1.03205e-06
-6.46583e-06
8.22119e-07
-7.07434e-06
6.08509e-07
-7.48462e-06
4.10276e-07
-7.70896e-06
2.24339e-07
-7.74268e-06
3.37232e-08
-7.57272e-06
-1.69963e-07
-7.19943e-06
-3.73289e-07
-6.55893e-06
-6.40497e-07
-5.62065e-06
-9.38285e-07
-4.33212e-06
-1.28852e-06
-2.73297e-06
-1.59916e-06
-1.04397e-06
-1.68899e-06
-1.04397e-06
-3.27348e-07
1.94439e-07
-1.24169e-06
1.13477e-06
-2.54489e-06
2.04235e-06
-3.77313e-06
2.4537e-06
-4.80423e-06
2.37894e-06
-5.71507e-06
2.12253e-06
-6.45911e-06
1.77609e-06
-7.046e-06
1.40901e-06
-7.48926e-06
1.05176e-06
-7.78478e-06
7.05802e-07
-7.91926e-06
3.5882e-07
-7.87662e-06
-8.91914e-09
-7.69466e-06
-3.51923e-07
-7.32468e-06
-7.4327e-07
-6.75787e-06
-1.20731e-06
-5.94903e-06
-1.74713e-06
-4.85712e-06
-2.38043e-06
-3.42216e-06
-3.03412e-06
-1.67852e-06
-3.43263e-06
-2.7225e-06
-9.21552e-07
1.11599e-06
-2.17656e-06
2.38977e-06
-3.30525e-06
3.17105e-06
-4.23564e-06
3.38408e-06
-5.02032e-06
3.16363e-06
-5.66895e-06
2.77115e-06
-6.1797e-06
2.28684e-06
-6.5451e-06
1.77441e-06
-6.78165e-06
1.28831e-06
-6.8918e-06
8.15947e-07
-6.89778e-06
3.648e-07
-6.81794e-06
-8.87548e-08
-6.62506e-06
-5.44799e-07
-6.30964e-06
-1.05869e-06
-5.8572e-06
-1.65975e-06
-5.23011e-06
-2.37422e-06
-4.393e-06
-3.21754e-06
-3.27897e-06
-4.14814e-06
-1.81147e-06
-4.90013e-06
-4.53397e-06
-1.1597e-06
2.27569e-06
-2.32032e-06
3.55039e-06
-3.26337e-06
4.1141e-06
-3.98668e-06
4.10739e-06
-4.55619e-06
3.73313e-06
-4.98544e-06
3.20041e-06
-5.28937e-06
2.59077e-06
-5.49361e-06
1.97865e-06
-5.60829e-06
1.403e-06
-5.6496e-06
8.57259e-07
-5.62028e-06
3.35474e-07
-5.52484e-06
-1.84189e-07
-5.34876e-06
-7.20882e-07
-5.09043e-06
-1.31702e-06
-4.73956e-06
-2.01062e-06
-4.27024e-06
-2.84354e-06
-3.64459e-06
-3.84319e-06
-2.80003e-06
-4.9927e-06
-1.60583e-06
-6.09433e-06
-6.1398e-06
-1.10689e-06
3.38259e-06
-2.08992e-06
4.53342e-06
-2.84826e-06
4.87244e-06
-3.41051e-06
4.66963e-06
-3.82181e-06
4.14444e-06
-4.10649e-06
3.48509e-06
-4.29457e-06
2.77885e-06
-4.41129e-06
2.09536e-06
-4.46488e-06
1.45659e-06
-4.46422e-06
8.56603e-07
-4.41136e-06
2.8261e-07
-4.30845e-06
-2.87101e-07
-4.15144e-06
-8.77889e-07
-3.9419e-06
-1.52656e-06
-3.67533e-06
-2.27719e-06
-3.33574e-06
-3.18313e-06
-2.8855e-06
-4.29343e-06
-2.25497e-06
-5.62324e-06
-1.34001e-06
-7.00928e-06
-7.47981e-06
-9.15657e-07
4.29824e-06
-1.69895e-06
5.31671e-06
-2.29435e-06
5.46784e-06
-2.72361e-06
5.0989e-06
-3.02252e-06
4.44334e-06
-3.21934e-06
3.68191e-06
-3.3438e-06
2.90331e-06
-3.41425e-06
2.16582e-06
-3.43872e-06
1.48106e-06
-3.42228e-06
8.40156e-07
-3.36629e-06
2.26621e-07
-3.27112e-06
-3.82272e-07
-3.13655e-06
-1.01245e-06
-2.96551e-06
-1.69761e-06
-2.76028e-06
-2.48242e-06
-2.51665e-06
-3.42676e-06
-2.21474e-06
-4.59535e-06
-1.78554e-06
-6.05244e-06
-1.08038e-06
-7.71444e-06
-8.56019e-06
-6.9471e-07
4.99295e-06
-1.2737e-06
5.8957e-06
-1.71599e-06
5.91013e-06
-2.03073e-06
5.41364e-06
-2.24717e-06
4.65978e-06
-2.38875e-06
3.82349e-06
-2.47808e-06
2.99264e-06
-2.52797e-06
2.21571e-06
-2.54502e-06
1.49811e-06
-2.53215e-06
8.27284e-07
-2.48874e-06
1.83217e-07
-2.41317e-06
-4.57844e-07
-2.30488e-06
-1.12074e-06
-2.16781e-06
-1.83468e-06
-2.00986e-06
-2.64037e-06
-1.83545e-06
-3.60116e-06
-1.63398e-06
-4.79681e-06
-1.34904e-06
-6.33738e-06
-8.84237e-07
-8.17924e-06
-9.44443e-06
-4.51995e-07
5.44495e-06
-8.54294e-07
6.298e-06
-1.1572e-06
6.21304e-06
-1.3745e-06
5.63094e-06
-1.52655e-06
4.81183e-06
-1.6297e-06
3.92664e-06
-1.69871e-06
3.06165e-06
-1.7413e-06
2.2583e-06
-1.76154e-06
1.51835e-06
-1.7603e-06
8.26043e-07
-1.73557e-06
1.58493e-07
-1.68482e-06
-5.08594e-07
-1.60692e-06
-1.19864e-06
-1.50561e-06
-1.93599e-06
-1.39187e-06
-2.7541e-06
-1.2781e-06
-3.71494e-06
-1.16037e-06
-4.91455e-06
-9.90922e-07
-6.50682e-06
-6.84259e-07
-8.48591e-06
-1.01287e-05
-2.41569e-07
5.68652e-06
-4.63999e-07
6.52043e-06
-6.33955e-07
6.38299e-06
-7.64382e-07
5.76137e-06
-8.60708e-07
4.90816e-06
-9.32173e-07
3.99811e-06
-9.85822e-07
3.1153e-06
-1.02448e-06
2.29696e-06
-1.04946e-06
1.54332e-06
-1.06015e-06
8.36737e-07
-1.05436e-06
1.52703e-07
-1.02984e-06
-5.33122e-07
-9.8572e-07
-1.24276e-06
-9.25451e-07
-1.99626e-06
-8.60188e-07
-2.81937e-06
-8.05824e-07
-3.7693e-06
-7.65468e-07
-4.9549e-06
-6.99548e-07
-6.57275e-06
-5.4603e-07
-8.63942e-06
-1.06747e-05
-2.42933e-08
5.71081e-06
-9.74592e-08
6.59359e-06
-1.51858e-07
6.43739e-06
-1.967e-07
5.80621e-06
-2.36999e-07
4.94846e-06
-2.75523e-07
4.03663e-06
-3.12157e-07
3.15193e-06
-3.44773e-07
2.32958e-06
-3.71918e-07
1.57047e-06
-3.9225e-07
8.57069e-07
-4.04297e-07
1.6475e-07
-4.06781e-07
-5.30638e-07
-3.9964e-07
-1.2499e-06
-3.85972e-07
-2.00993e-06
-3.76386e-07
-2.82895e-06
-3.82895e-07
-3.76279e-06
-4.28883e-07
-4.90891e-06
-4.57783e-07
-6.54385e-06
-4.13865e-07
-8.68334e-06
-1.10886e-05
1.74682e-07
5.53613e-06
2.63666e-07
6.50461e-06
3.30571e-07
6.37049e-06
3.57583e-07
5.7792e-06
3.68485e-07
4.93756e-06
3.63867e-07
4.04125e-06
3.47989e-07
3.16781e-06
3.25644e-07
2.35192e-06
2.99979e-07
1.59613e-06
2.72524e-07
8.84524e-07
2.43674e-07
1.936e-07
2.13356e-07
-5.00319e-07
1.80589e-07
-1.21713e-06
1.42597e-07
-1.97194e-06
9.10723e-08
-2.77743e-06
-3.60257e-09
-3.66811e-06
-1.12118e-07
-4.8004e-06
-2.51038e-07
-6.40493e-06
-3.24179e-07
-8.6102e-06
-1.14128e-05
3.63211e-07
5.17292e-06
6.017e-07
6.26612e-06
7.82045e-07
6.19014e-06
8.94058e-07
5.66718e-06
9.6486e-07
4.86675e-06
1.00241e-06
4.00369e-06
1.01477e-06
3.15546e-06
1.00888e-06
2.35781e-06
9.89102e-07
1.61591e-06
9.57089e-07
9.16538e-07
9.12123e-07
2.38566e-07
8.52547e-07
-4.40743e-07
7.7589e-07
-1.14047e-06
6.79179e-07
-1.87523e-06
5.54716e-07
-2.65296e-06
3.96347e-07
-3.50975e-06
1.81423e-07
-4.58548e-06
-7.48604e-08
-6.14864e-06
-2.2518e-07
-8.45988e-06
-1.16379e-05
5.46219e-07
4.6267e-06
9.30707e-07
5.88163e-06
1.22049e-06
5.90036e-06
1.4231e-06
5.46457e-06
1.56197e-06
4.72789e-06
1.65185e-06
3.91381e-06
1.70212e-06
3.10519e-06
1.72071e-06
2.33922e-06
1.71269e-06
1.62393e-06
1.67972e-06
9.49509e-07
1.61995e-06
2.9834e-07
1.53052e-06
-3.51317e-07
1.40742e-06
-1.01737e-06
1.24679e-06
-1.7146e-06
1.04447e-06
-2.45065e-06
7.9447e-07
-3.25975e-06
4.71282e-07
-4.26229e-06
1.18625e-07
-5.79598e-06
-1.11721e-07
-8.22954e-06
-1.17497e-05
7.01224e-07
3.92548e-06
1.21954e-06
5.36332e-06
1.61627e-06
5.50363e-06
1.92683e-06
5.15401e-06
2.15271e-06
4.50201e-06
2.31153e-06
3.75499e-06
2.41413e-06
3.00259e-06
2.46894e-06
2.28442e-06
2.48128e-06
1.61159e-06
2.45283e-06
9.77956e-07
2.38089e-06
3.70285e-07
2.26116e-06
-2.31596e-07
2.08946e-06
-8.4566e-07
1.86046e-06
-1.48561e-06
1.5713e-06
-2.16148e-06
1.22025e-06
-2.9087e-06
7.91349e-07
-3.83339e-06
3.54298e-07
-5.35893e-06
4.94903e-08
-7.92473e-06
-1.17002e-05
8.30326e-07
3.09515e-06
1.46474e-06
4.7289e-06
1.97501e-06
4.99336e-06
2.40297e-06
4.72605e-06
2.73359e-06
4.17139e-06
2.97819e-06
3.51039e-06
3.14809e-06
2.83268e-06
3.25195e-06
2.18056e-06
3.29475e-06
1.56879e-06
3.27823e-06
9.94473e-07
3.19926e-06
4.49262e-07
3.05015e-06
-8.24947e-08
2.82954e-06
-6.25048e-07
2.5299e-06
-1.18596e-06
2.14817e-06
-1.77975e-06
1.69079e-06
-2.45132e-06
1.14897e-06
-3.29156e-06
6.08803e-07
-4.81877e-06
1.83497e-07
-7.49942e-06
-1.15167e-05
8.32742e-07
2.26241e-06
1.56627e-06
3.99538e-06
2.21627e-06
4.34336e-06
2.78485e-06
4.15747e-06
3.25015e-06
3.70609e-06
3.6097e-06
3.15084e-06
3.87151e-06
2.57087e-06
4.04417e-06
2.0079e-06
4.13256e-06
1.4804e-06
4.13874e-06
9.88289e-07
4.06045e-06
5.27555e-07
3.89296e-06
8.49918e-08
3.62694e-06
-3.59028e-07
3.26159e-06
-8.20614e-07
2.79037e-06
-1.30853e-06
2.22935e-06
-1.89029e-06
1.57265e-06
-2.63486e-06
9.199e-07
-4.16602e-06
3.75732e-07
-6.95525e-06
-1.11409e-05
7.41187e-07
1.52122e-06
1.54995e-06
3.18662e-06
2.35227e-06
3.54103e-06
3.07517e-06
3.43457e-06
3.6887e-06
3.09257e-06
4.18248e-06
2.65705e-06
4.55467e-06
2.19868e-06
4.81139e-06
1.75118e-06
4.95819e-06
1.33361e-06
4.99861e-06
9.47869e-07
4.93388e-06
5.92287e-07
4.76438e-06
2.54491e-07
4.4727e-06
-6.73465e-08
4.07033e-06
-4.18244e-07
3.53822e-06
-7.76432e-07
2.89733e-06
-1.2494e-06
2.14992e-06
-1.88746e-06
1.38223e-06
-3.39833e-06
6.53019e-07
-6.22604e-06
-1.04879e-05
2.39933e-07
1.28129e-06
1.17018e-06
2.25637e-06
2.15969e-06
2.55152e-06
3.08424e-06
2.51003e-06
3.88376e-06
2.29304e-06
4.54178e-06
1.99904e-06
5.05648e-06
1.68398e-06
5.42956e-06
1.37809e-06
5.66936e-06
1.09381e-06
5.78241e-06
8.34819e-07
5.77449e-06
6.00212e-07
5.6513e-06
3.77677e-07
5.41372e-06
1.70241e-07
5.05881e-06
-6.3339e-08
4.55315e-06
-2.70775e-07
3.92334e-06
-6.19586e-07
3.14605e-06
-1.11016e-06
2.2902e-06
-2.54248e-06
1.18757e-06
-5.12342e-06
-9.30035e-06
-5.54446e-07
1.83573e-06
4.76589e-07
1.22533e-06
1.76846e-06
1.25965e-06
2.96637e-06
1.31212e-06
4.0031e-06
1.25631e-06
4.87414e-06
1.128e-06
5.58454e-06
9.73579e-07
6.13103e-06
8.31598e-07
6.53265e-06
6.92193e-07
6.79356e-06
5.73904e-07
6.93785e-06
4.55923e-07
6.95906e-06
3.56468e-07
6.8766e-06
2.527e-07
6.66085e-06
1.5241e-07
6.34763e-06
4.24448e-08
5.91013e-06
-1.82085e-07
5.29106e-06
-4.91089e-07
4.40633e-06
-1.65775e-06
2.61015e-06
-3.32723e-06
-6.6902e-06
1.83573e-06
3.06107e-06
4.32071e-06
5.63283e-06
6.88914e-06
8.01714e-06
8.99072e-06
9.82232e-06
1.05145e-05
1.10884e-05
1.15443e-05
1.19008e-05
1.21535e-05
1.23059e-05
1.23484e-05
1.21663e-05
1.16752e-05
1.00174e-05
6.6902e-06
)
;

boundaryField
{
    movingWall
    {
        type            calculated;
        value           uniform 0;
    }
    fixedWalls
    {
        type            calculated;
        value           uniform 0;
    }
    frontAndBack
    {
        type            empty;
        value           nonuniform 0();
    }
}


// ************************************************************************* //
