/*--------------------------------*- C++ -*----------------------------------*\
| =========                 |                                                 |
| \\      /  F ield         | OpenFOAM: The Open Source CFD Toolbox           |
|  \\    /   O peration     | Version:  5.0                                   |
|   \\  /    A nd           | Web:      www.OpenFOAM.org                      |
|    \\/     M anipulation  |                                                 |
\*---------------------------------------------------------------------------*/
FoamFile
{
    version     2.0;
    format      ascii;
    class       volVectorField;
    location    "7";
    object      U;
}
// * * * * * * * * * * * * * * * * * * * * * * * * * * * * * * * * * * * * * //

dimensions      [0 1 -1 0 0 0 0];

internalField   nonuniform List<vector> 
400
(
(0.00225266 -0.00273228 0)
(0.00267974 -0.000624232 0)
(-0.00583412 0.00322156 0)
(-0.0246581 0.0099437 0)
(-0.0570349 0.0138568 0)
(-0.0826262 0.0119454 0)
(-0.105791 0.0103782 0)
(-0.123394 0.00804909 0)
(-0.137461 0.00620886 0)
(-0.147154 0.00402353 0)
(-0.153123 0.00228235 0)
(-0.15554 0.000429598 0)
(-0.154666 -0.0024802 0)
(-0.148341 -0.00465126 0)
(-0.137836 -0.00787949 0)
(-0.120871 -0.0108513 0)
(-0.0982011 -0.0142013 0)
(-0.0691786 -0.0162146 0)
(-0.0370373 -0.014721 0)
(-0.0087669 -0.00412044 0)
(-0.00162556 -0.00283902 0)
(-0.0112914 0.0102123 0)
(-0.0362277 0.0282931 0)
(-0.0639435 0.0388327 0)
(-0.0879896 0.0380676 0)
(-0.1074 0.0343255 0)
(-0.124013 0.029039 0)
(-0.136221 0.0235135 0)
(-0.146762 0.0171383 0)
(-0.153781 0.0114999 0)
(-0.158123 0.00594106 0)
(-0.159033 0.000471992 0)
(-0.156736 -0.00557161 0)
(-0.151016 -0.0122757 0)
(-0.141343 -0.0204773 0)
(-0.12683 -0.0298985 0)
(-0.107199 -0.0406928 0)
(-0.0820882 -0.0504306 0)
(-0.051256 -0.0532315 0)
(-0.0187534 -0.0347533 0)
(-0.00753819 0.0118876 0)
(-0.0300439 0.0372256 0)
(-0.0553506 0.0536127 0)
(-0.0769972 0.0587709 0)
(-0.0944223 0.0554012 0)
(-0.108466 0.0486683 0)
(-0.119787 0.0401357 0)
(-0.128371 0.0311236 0)
(-0.134398 0.0230465 0)
(-0.137365 0.0149788 0)
(-0.138554 0.00704128 0)
(-0.137618 -0.00107074 0)
(-0.135215 -0.00960408 0)
(-0.129952 -0.0190164 0)
(-0.122215 -0.030041 0)
(-0.111008 -0.0431379 0)
(-0.0958676 -0.0586161 0)
(-0.0761503 -0.0755223 0)
(-0.0502666 -0.0879292 0)
(-0.0214959 -0.0767143 0)
(-0.0116048 0.0344668 0)
(-0.0357594 0.0602013 0)
(-0.0577928 0.0732425 0)
(-0.0743465 0.074841 0)
(-0.0869722 0.0689373 0)
(-0.0966627 0.0597272 0)
(-0.10373 0.0488076 0)
(-0.10861 0.0376521 0)
(-0.111504 0.0269348 0)
(-0.112996 0.0166357 0)
(-0.113125 0.00686104 0)
(-0.111874 -0.00290361 0)
(-0.109215 -0.0131245 0)
(-0.10483 -0.0245174 0)
(-0.0987101 -0.0377758 0)
(-0.0904001 -0.0536265 0)
(-0.0791589 -0.0724714 0)
(-0.0640145 -0.0936621 0)
(-0.0430006 -0.11272 0)
(-0.0195093 -0.1108 0)
(-0.011817 0.0559994 0)
(-0.033888 0.080534 0)
(-0.0515544 0.0895717 0)
(-0.0643415 0.0876731 0)
(-0.0736434 0.0788992 0)
(-0.0802352 0.0670808 0)
(-0.0846315 0.053945 0)
(-0.0874874 0.0409559 0)
(-0.0890632 0.0286868 0)
(-0.0895715 0.0171478 0)
(-0.0890325 0.00614755 0)
(-0.0874798 -0.004786 0)
(-0.0848969 -0.0161597 0)
(-0.0812209 -0.0287373 0)
(-0.0764353 -0.0433848 0)
(-0.0703749 -0.0610881 0)
(-0.0624562 -0.082686 0)
(-0.0512275 -0.108191 0)
(-0.0347201 -0.133645 0)
(-0.0171754 -0.139319 0)
(-0.0100424 0.0758973 0)
(-0.0281631 0.0980099 0)
(-0.0418692 0.103116 0)
(-0.0517546 0.0976868 0)
(-0.0585497 0.0860368 0)
(-0.0631128 0.071874 0)
(-0.0660215 0.0570088 0)
(-0.067844 0.0427491 0)
(-0.0687306 0.0294579 0)
(-0.0687883 0.0169998 0)
(-0.0680598 0.00507555 0)
(-0.0665543 -0.00674433 0)
(-0.0642657 -0.0189754 0)
(-0.0612023 -0.0323441 0)
(-0.0574134 -0.0477646 0)
(-0.0528998 -0.0663837 0)
(-0.0474439 -0.0893888 0)
(-0.0396012 -0.117615 0)
(-0.0290245 -0.149058 0)
(-0.0116769 -0.162501 0)
(-0.00819238 0.0923992 0)
(-0.0211961 0.111843 0)
(-0.0315075 0.113723 0)
(-0.0387895 0.105217 0)
(-0.0436371 0.0911758 0)
(-0.0468641 0.0751977 0)
(-0.0489245 0.0590798 0)
(-0.0502213 0.0438999 0)
(-0.0508486 0.0298319 0)
(-0.0508826 0.0166654 0)
(-0.0503271 0.00404049 0)
(-0.0491444 -0.00849798 0)
(-0.0473044 -0.0214549 0)
(-0.0448352 -0.0354637 0)
(-0.0418489 -0.0514057 0)
(-0.03846 -0.0705377 0)
(-0.034744 -0.0942973 0)
(-0.0292215 -0.12454 0)
(-0.0233173 -0.160012 0)
(-0.00938267 -0.181465 0)
(-0.00537705 0.104439 0)
(-0.0140822 0.12219 0)
(-0.0214103 0.121522 0)
(-0.026352 0.110672 0)
(-0.0296562 0.0948981 0)
(-0.031922 0.0776347 0)
(-0.0334474 0.0606322 0)
(-0.0344899 0.0447852 0)
(-0.0350934 0.0301629 0)
(-0.0352888 0.0164845 0)
(-0.0350429 0.00332215 0)
(-0.0342933 -0.00980058 0)
(-0.0329932 -0.0233624 0)
(-0.0311719 -0.0378925 0)
(-0.0289746 -0.0541438 0)
(-0.0265821 -0.0734041 0)
(-0.024369 -0.0974023 0)
(-0.0207868 -0.128875 0)
(-0.0188006 -0.167245 0)
(-0.00598875 -0.19653 0)
(-0.00326876 0.111961 0)
(-0.00748225 0.128554 0)
(-0.0119051 0.126344 0)
(-0.0147082 0.114225 0)
(-0.0166968 0.0974093 0)
(-0.0181729 0.0793802 0)
(-0.0192762 0.0618417 0)
(-0.0201448 0.0455738 0)
(-0.0207689 0.0305932 0)
(-0.0211366 0.0165618 0)
(-0.0211983 0.00300258 0)
(-0.0208939 -0.0105722 0)
(-0.0201825 -0.0246119 0)
(-0.0190922 -0.0395534 0)
(-0.0177857 -0.0559856 0)
(-0.0164147 -0.0751389 0)
(-0.0158185 -0.0990336 0)
(-0.0136157 -0.131301 0)
(-0.0152008 -0.171719 0)
(-0.00425934 -0.208693 0)
(-1.30048e-05 0.114918 0)
(-0.00127729 0.132152 0)
(-0.00303833 0.128937 0)
(-0.00379769 0.11612 0)
(-0.00456056 0.0988729 0)
(-0.00525537 0.080525 0)
(-0.00591893 0.0627586 0)
(-0.00657409 0.0462883 0)
(-0.00716588 0.0311145 0)
(-0.00765053 0.0168731 0)
(-0.00798052 0.00306584 0)
(-0.00811652 -0.0107985 0)
(-0.00803938 -0.0251413 0)
(-0.00777338 -0.0403233 0)
(-0.00749563 -0.0567793 0)
(-0.00720105 -0.0756127 0)
(-0.00851284 -0.0990376 0)
(-0.00737479 -0.131607 0)
(-0.012347 -0.173525 0)
(-0.00189404 -0.218192 0)
(0.00206328 0.113426 0)
(0.00435022 0.131874 0)
(0.00554803 0.128659 0)
(0.00664906 0.116194 0)
(0.00709637 0.0991105 0)
(0.00724752 0.0809404 0)
(0.00711691 0.0632877 0)
(0.00676622 0.046851 0)
(0.00629199 0.0316566 0)
(0.00575575 0.0173632 0)
(0.00519502 0.00348315 0)
(0.00462189 -0.0104676 0)
(0.00402231 -0.0248903 0)
(0.0033736 -0.0400969 0)
(0.00246876 -0.0563818 0)
(0.00156271 -0.0746611 0)
(-0.00183312 -0.0975655 0)
(-0.00159031 -0.129847 0)
(-0.010223 -0.173407 0)
(-0.000244369 -0.225543 0)
(0.00399997 0.108983 0)
(0.00986746 0.129112 0)
(0.0133918 0.126686 0)
(0.0165641 0.115226 0)
(0.0184666 0.0985046 0)
(0.0196278 0.0807496 0)
(0.020201 0.06342 0)
(0.0203018 0.0471996 0)
(0.0200562 0.0321584 0)
(0.0195418 0.0179925 0)
(0.0187855 0.00424605 0)
(0.0177756 -0.0095498 0)
(0.0164574 -0.0237873 0)
(0.0148166 -0.0387542 0)
(0.0126417 -0.0546413 0)
(0.0101723 -0.0721655 0)
(0.00467061 -0.0942336 0)
(0.00417555 -0.125883 0)
(-0.00858917 -0.171212 0)
(0.00228636 -0.23068 0)
(0.00608013 0.0999146 0)
(0.0149916 0.122527 0)
(0.0212876 0.121413 0)
(0.0261726 0.11183 0)
(0.029773 0.0962949 0)
(0.0321249 0.0794391 0)
(0.0335924 0.0628091 0)
(0.0343268 0.047115 0)
(0.0344547 0.0324862 0)
(0.0340605 0.0186915 0)
(0.0331574 0.00533617 0)
(0.0317216 -0.00801668 0)
(0.0296463 -0.0217443 0)
(0.0269425 -0.0361451 0)
(0.0232865 -0.0513543 0)
(0.0191519 -0.0680579 0)
(0.0115275 -0.0888499 0)
(0.00988422 -0.11988 0)
(-0.00725121 -0.167356 0)
(0.00514367 -0.233916 0)
(0.00783538 0.0877627 0)
(0.019484 0.11452 0)
(0.0282995 0.115485 0)
(0.0351618 0.107313 0)
(0.0407208 0.0931817 0)
(0.0446407 0.0773464 0)
(0.0473254 0.0615704 0)
(0.0489627 0.0465968 0)
(0.0496732 0.0326048 0)
(0.0495449 0.0194283 0)
(0.0485754 0.00674257 0)
(0.0467415 -0.00585652 0)
(0.0438721 -0.0187133 0)
(0.0400548 -0.0321615 0)
(0.034739 -0.0463638 0)
(0.0288736 -0.0619795 0)
(0.018933 -0.0813126 0)
(0.0158753 -0.111982 0)
(-0.005563 -0.161816 0)
(0.00935795 -0.235371 0)
(0.00937767 0.0718498 0)
(0.0234431 0.1016 0)
(0.0344806 0.105405 0)
(0.0435648 0.0992737 0)
(0.051231 0.0872853 0)
(0.0570875 0.0731737 0)
(0.061331 0.0588095 0)
(0.0641607 0.0450348 0)
(0.0656912 0.0321128 0)
(0.0660106 0.0199536 0)
(0.0650964 0.00832594 0)
(0.0629351 -0.003147 0)
(0.0592566 -0.014696 0)
(0.0543331 -0.0267486 0)
(0.0472264 -0.0395239 0)
(0.0396216 -0.0537946 0)
(0.0270395 -0.0716193 0)
(0.0225188 -0.102285 0)
(-0.00335953 -0.155297 0)
(0.0144567 -0.23563 0)
(0.00930519 0.0542739 0)
(0.0251128 0.0892971 0)
(0.0381816 0.0955837 0)
(0.0497734 0.0908239 0)
(0.0601081 0.0805234 0)
(0.0685137 0.0680739 0)
(0.0748783 0.0552258 0)
(0.0793522 0.042843 0)
(0.0820489 0.0312441 0)
(0.0830916 0.0203942 0)
(0.0823951 0.010151 0)
(0.0801057 0.000163453 0)
(0.0757105 -0.00968532 0)
(0.0698362 -0.0199401 0)
(0.060924 -0.0308463 0)
(0.0517602 -0.0434858 0)
(0.036371 -0.0595939 0)
(0.0305631 -0.0906357 0)
(-0.000328639 -0.146562 0)
(0.0212347 -0.233901 0)
(0.00766906 0.0360202 0)
(0.0242354 0.0700587 0)
(0.0395202 0.0787593 0)
(0.0539493 0.0764125 0)
(0.0672161 0.0686823 0)
(0.0785378 0.0588248 0)
(0.0874217 0.0483515 0)
(0.0938918 0.0381434 0)
(0.0980197 0.0286033 0)
(0.100054 0.0197396 0)
(0.0997684 0.0114889 0)
(0.0976802 0.00353875 0)
(0.0928238 -0.00420988 0)
(0.0865686 -0.0122333 0)
(0.0763032 -0.0206981 0)
(0.0663042 -0.0313197 0)
(0.0483673 -0.0452166 0)
(0.0418305 -0.0768437 0)
(0.0048971 -0.136018 0)
(0.0304093 -0.226877 0)
(-0.00350303 0.0238307 0)
(0.0151752 0.0576562 0)
(0.0335559 0.064954 0)
(0.0520349 0.063287 0)
(0.0692109 0.0572031 0)
(0.0840341 0.049501 0)
(0.0959874 0.0414653 0)
(0.105097 0.033545 0)
(0.111299 0.0261237 0)
(0.115075 0.0193289 0)
(0.115991 0.0131469 0)
(0.115067 0.00737195 0)
(0.110894 0.00195683 0)
(0.105883 -0.0036542 0)
(0.0959143 -0.00951059 0)
(0.0869809 -0.0176163 0)
(0.0677495 -0.029275 0)
(0.0613352 -0.0606481 0)
(0.0178413 -0.120322 0)
(0.0459437 -0.204923 0)
(-0.0149102 0.0301107 0)
(-0.00313223 0.0276557 0)
(0.0227266 0.0323858 0)
(0.0473059 0.0338343 0)
(0.0693645 0.0319861 0)
(0.0885362 0.0282434 0)
(0.104557 0.0239501 0)
(0.117361 0.0198407 0)
(0.126931 0.0160529 0)
(0.133799 0.0125629 0)
(0.137704 0.00944498 0)
(0.139626 0.00640138 0)
(0.138533 0.00381945 0)
(0.136204 0.000437251 0)
(0.129479 -0.00245366 0)
(0.123672 -0.00842221 0)
(0.107592 -0.0175555 0)
(0.102372 -0.0450269 0)
(0.0572271 -0.0928918 0)
(0.0775903 -0.156502 0)
(0.0399076 0.0380782 0)
(0.0459108 0.027378 0)
(0.0698137 0.0241207 0)
(0.09887 0.0239415 0)
(0.124641 0.0230652 0)
(0.148084 0.021295 0)
(0.16928 0.0188981 0)
(0.187694 0.0168204 0)
(0.203292 0.014547 0)
(0.216221 0.0129201 0)
(0.226569 0.0109629 0)
(0.23478 0.00977994 0)
(0.240657 0.00795353 0)
(0.244681 0.00702535 0)
(0.246387 0.00487916 0)
(0.244587 0.00256276 0)
(0.236565 0.00194442 0)
(0.221934 -0.00962942 0)
(0.172902 -0.0130073 0)
(0.145889 -0.064133 0)
)
;

boundaryField
{
    movingWall
    {
        type            fixedValue;
        value           uniform (1 0 0);
    }
    fixedWalls
    {
        type            noSlip;
    }
    frontAndBack
    {
        type            empty;
    }
}


// ************************************************************************* //
