/*--------------------------------*- C++ -*----------------------------------*\
  =========                 |
  \\      /  F ield         | OpenFOAM: The Open Source CFD Toolbox
   \\    /   O peration     | Website:  https://openfoam.org
    \\  /    A nd           | Version:  6
     \\/     M anipulation  |
\*---------------------------------------------------------------------------*/
FoamFile
{
    version     2.0;
    format      ascii;
    class       volScalarField;
    location    "0.1";
    object      p;
}
// * * * * * * * * * * * * * * * * * * * * * * * * * * * * * * * * * * * * * //

dimensions      [0 2 -2 0 0 0 0];

internalField   nonuniform List<scalar> 
400
(
-1.2179e-06
-0.00500422
-0.0113289
-0.0161176
-0.0177171
-0.0154363
-0.00921741
0.000543078
0.0131157
0.0275447
0.0427169
0.057414
0.0704272
0.0806452
0.0871863
0.0895554
0.0878151
0.0827789
0.0762787
0.0712615
0.00482101
-0.000330764
-0.00595663
-0.00981059
-0.0108701
-0.00866942
-0.00317027
0.0053063
0.0161593
0.0285941
0.0416668
0.054346
0.0656062
0.0745065
0.080305
0.082588
0.0813956
0.0773031
0.0715085
0.066353
0.0113135
0.00487137
-0.00117139
-0.0047719
-0.00562001
-0.00356858
0.00133873
0.00880659
0.0183243
0.0292194
0.0406867
0.051848
0.061813
0.0697549
0.0750055
0.0771614
0.0761686
0.0722807
0.0660029
0.0595047
0.0170102
0.00857372
0.00117462
-0.00290471
-0.00391411
-0.00201426
0.00263072
0.00969336
0.0186865
0.0289912
0.0398759
0.050531
0.0601165
0.0678255
0.0729667
0.075061
0.0739057
0.069448
0.0616758
0.0530634
0.0202719
0.00962339
0.00053148
-0.00429995
-0.00556052
-0.00368394
0.00103729
0.00821613
0.0173512
0.0278373
0.0389677
0.0499495
0.0599352
0.068075
0.0735892
0.0758659
0.0745216
0.0692192
0.0595542
0.0485319
0.0199016
0.00699042
-0.00385842
-0.00944503
-0.01084
-0.00872922
-0.00353507
0.00428251
0.0141881
0.0255663
0.0377072
0.0498017
0.0609573
0.0702362
0.0767207
0.0796166
0.0783228
0.0722108
0.0605306
0.0469425
0.0148151
-0.000375649
-0.0129322
-0.019115
-0.0203708
-0.0176421
-0.0114894
-0.00245512
0.0088808
0.0218823
0.0358228
0.0498601
0.063032
0.074281
0.0825051
0.0866727
0.0859079
0.0792402
0.0655479
0.0492477
0.0038564
-0.0136216
-0.027752
-0.0342241
-0.0349083
-0.0310405
-0.023339
-0.0124382
0.0010352
0.0164276
0.0329998
0.0498755
0.0660139
0.0802218
0.0911693
0.0975214
0.0980408
0.0913089
0.075727
0.0565632
-0.0143417
-0.0340924
-0.0495536
-0.0558239
-0.0553076
-0.0496093
-0.0396409
-0.0261389
-0.00976858
0.00881871
0.0288946
0.0495669
0.0697352
0.0880763
0.10299
0.112765
0.11568
0.109695
0.0925268
0.0703791
-0.0415049
-0.0634486
-0.0798143
-0.0851169
-0.0824919
-0.0740396
-0.0609188
-0.0439775
-0.0238978
-0.00128659
0.0231796
0.0486284
0.074021
0.0978705
0.118294
0.133135
0.140037
0.136072
0.117935
0.0927989
-0.0799215
-0.103819
-0.120325
-0.123444
-0.117376
-0.104911
-0.0875253
-0.0661779
-0.0415202
-0.0140463
0.0156689
0.046956
0.0788112
0.109669
0.137455
0.159506
0.17263
0.172655
0.154706
0.12686
-0.132787
-0.158035
-0.173276
-0.172233
-0.16072
-0.142498
-0.119426
-0.0925414
-0.0623746
-0.0292681
0.00648064
0.044508
0.0839927
0.123522
0.160868
0.192873
0.215327
0.222365
0.206707
0.177021
-0.204854
-0.230022
-0.241347
-0.23287
-0.212879
-0.18647
-0.155897
-0.122173
-0.0856642
-0.0463559
-0.00397842
0.0415137
0.0897157
0.139557
0.188913
0.234298
0.27032
0.28902
0.27942
0.249995
-0.303765
-0.325413
-0.327771
-0.306456
-0.273375
-0.235456
-0.195185
-0.153325
-0.10974
-0.0637496
-0.0144967
0.0387501
0.0963391
0.157883
0.221777
0.284625
0.339889
0.377389
0.380714
0.356316
-0.442646
-0.452618
-0.436237
-0.393132
-0.340344
-0.286636
-0.234217
-0.182912
-0.131748
-0.079173
-0.0234102
0.0372656
0.104282
0.178392
0.259116
0.343932
0.426349
0.492784
0.521755
0.512992
-0.642863
-0.623625
-0.570292
-0.491094
-0.409816
-0.33543
-0.2682
-0.206598
-0.148145
-0.0898898
-0.0288044
0.0380961
0.113659
0.200323
0.29964
0.41127
0.530845
0.642577
0.717686
0.745828
-0.938817
-0.854322
-0.730037
-0.594158
-0.473884
-0.373552
-0.290157
-0.219037
-0.155042
-0.0933014
-0.0292975
0.0413666
0.123222
0.220906
0.339132
0.481842
0.649253
0.829784
0.98788
1.09303
-1.43204
-1.17372
-0.902284
-0.681349
-0.513015
-0.386274
-0.290027
-0.21378
-0.148751
-0.087902
-0.0253162
0.0446423
0.128135
0.232145
0.365496
0.538776
0.76247
1.04282
1.36693
1.66396
-2.49505
-1.64766
-1.04664
-0.706279
-0.494315
-0.352894
-0.255604
-0.18447
-0.126885
-0.0741647
-0.0198351
0.0423579
0.119371
0.21973
0.356405
0.54859
0.824786
1.2434
1.92784
2.84441
-4.48298
-2.27316
-1.15714
-0.684094
-0.437453
-0.29194
-0.202948
-0.144015
-0.0990306
-0.058401
-0.0161709
0.0341838
0.0997536
0.189008
0.31829
0.516724
0.836256
1.40964
2.64013
4.94615
)
;

boundaryField
{
    movingWall
    {
        type            zeroGradient;
    }
    fixedWalls
    {
        type            zeroGradient;
    }
    frontAndBack
    {
        type            empty;
    }
}


// ************************************************************************* //
