/*--------------------------------*- C++ -*----------------------------------*\
  =========                 |
  \\      /  F ield         | OpenFOAM: The Open Source CFD Toolbox
   \\    /   O peration     | Website:  https://openfoam.org
    \\  /    A nd           | Version:  6
     \\/     M anipulation  |
\*---------------------------------------------------------------------------*/
FoamFile
{
    version     2.0;
    format      ascii;
    class       surfaceScalarField;
    location    "0.1";
    object      phi;
}
// * * * * * * * * * * * * * * * * * * * * * * * * * * * * * * * * * * * * * //

dimensions      [0 3 -1 0 0 0 0];

internalField   nonuniform List<scalar> 
760
(
6.76114e-09
-6.75087e-09
-3.16074e-08
3.83689e-08
-1.20837e-07
8.92301e-08
-2.46748e-07
1.25912e-07
-3.91054e-07
1.44307e-07
-5.36086e-07
1.45032e-07
-6.66474e-07
1.30389e-07
-7.69785e-07
1.03311e-07
-8.36737e-07
6.69522e-08
-8.61383e-07
2.46466e-08
-8.41114e-07
-2.02686e-08
-7.77047e-07
-6.40668e-08
-6.74235e-07
-1.02811e-07
-5.4188e-07
-1.32356e-07
-3.93278e-07
-1.48601e-07
-2.45318e-07
-1.47961e-07
-1.17221e-07
-1.28096e-07
-2.81238e-08
-8.90974e-08
8.36686e-09
-3.64904e-08
8.36697e-09
-3.73081e-08
3.05574e-08
-1.81844e-07
1.82905e-07
-4.30703e-07
3.3809e-07
-7.54426e-07
4.49636e-07
-1.11432e-06
5.04199e-07
-1.47128e-06
5.01993e-07
-1.79011e-06
4.49225e-07
-2.0417e-06
3.54901e-07
-2.20407e-06
2.29317e-07
-2.26307e-06
8.36451e-08
-2.21286e-06
-7.04786e-08
-2.05641e-06
-2.2051e-07
-1.80604e-06
-3.53187e-07
-1.4835e-06
-4.54889e-07
-1.11957e-06
-5.12537e-07
-7.52339e-07
-5.15186e-07
-4.23987e-07
-4.56448e-07
-1.74956e-07
-3.38128e-07
-3.39605e-08
-1.77486e-07
-2.55934e-08
-9.18129e-08
1.2237e-07
-3.52687e-07
4.43779e-07
-7.53384e-07
7.38788e-07
-1.24846e-06
9.44713e-07
-1.78475e-06
1.04049e-06
-2.30915e-06
1.0264e-06
-2.77369e-06
9.13761e-07
-3.13842e-06
7.19628e-07
-3.37313e-06
4.64028e-07
-3.45827e-06
1.68792e-07
-3.38588e-06
-1.42875e-07
-3.16012e-06
-4.46266e-07
-2.79793e-06
-7.1538e-07
-2.32908e-06
-9.23735e-07
-1.79547e-06
-1.04615e-06
-1.24882e-06
-1.06183e-06
-7.46448e-07
-9.5882e-07
-3.44309e-07
-7.40266e-07
-8.74217e-08
-4.34373e-07
-1.13015e-07
-1.43112e-07
2.65482e-07
-5.17682e-07
8.18349e-07
-1.06493e-06
1.28604e-06
-1.71971e-06
1.59949e-06
-2.41445e-06
1.73523e-06
-3.08469e-06
1.69663e-06
-3.67327e-06
1.50234e-06
-4.13308e-06
1.17944e-06
-4.42859e-06
7.59539e-07
-4.53682e-06
2.77019e-07
-4.44815e-06
-2.3154e-07
-4.16711e-06
-7.27306e-07
-3.71304e-06
-1.16945e-06
-3.12046e-06
-1.51632e-06
-2.43853e-06
-1.72808e-06
-1.72902e-06
-1.77134e-06
-1.06212e-06
-1.62572e-06
-5.0991e-07
-1.29248e-06
-1.38153e-07
-8.0613e-07
-2.51168e-07
-1.90839e-07
4.56321e-07
-6.75166e-07
1.30268e-06
-1.36522e-06
1.97609e-06
-2.17404e-06
2.40832e-06
-3.01865e-06
2.57983e-06
-3.82389e-06
2.50188e-06
-4.52537e-06
2.20382e-06
-5.07106e-06
1.72513e-06
-5.42214e-06
1.11062e-06
-5.55343e-06
4.08307e-07
-5.45392e-06
-3.31055e-07
-5.12752e-06
-1.0537e-06
-4.59411e-06
-1.70286e-06
-3.89041e-06
-2.22002e-06
-3.07037e-06
-2.54813e-06
-2.20406e-06
-2.63765e-06
-1.37453e-06
-2.45525e-06
-6.7202e-07
-1.99498e-06
-1.86383e-07
-1.29177e-06
-4.37551e-07
-2.37204e-07
6.93525e-07
-8.29797e-07
1.89527e-06
-1.66114e-06
2.80743e-06
-2.62111e-06
3.36829e-06
-3.61047e-06
3.56919e-06
-4.54381e-06
3.43522e-06
-5.35089e-06
3.0109e-06
-5.97664e-06
2.35088e-06
-6.38065e-06
1.51463e-06
-6.53658e-06
5.64238e-07
-6.43211e-06
-4.35525e-07
-6.06961e-06
-1.4162e-06
-5.46757e-06
-2.3049e-06
-4.66253e-06
-3.02506e-06
-3.71091e-06
-3.49975e-06
-2.68976e-06
-3.6588e-06
-1.69527e-06
-3.44974e-06
-8.38076e-07
-2.85217e-06
-2.35248e-07
-1.89459e-06
-6.72799e-07
-2.84589e-07
9.78114e-07
-9.87039e-07
2.59772e-06
-1.96007e-06
3.78047e-06
-3.06884e-06
4.47706e-06
-4.19738e-06
4.69773e-06
-5.25088e-06
4.48872e-06
-6.15508e-06
3.9151e-06
-6.85412e-06
3.04992e-06
-7.30798e-06
1.96849e-06
-7.49041e-06
7.46667e-07
-7.38796e-06
-5.37973e-07
-7.00044e-06
-1.80372e-06
-6.34286e-06
-2.96247e-06
-5.44869e-06
-3.91923e-06
-4.37385e-06
-4.57459e-06
-3.20024e-06
-4.83241e-06
-2.03686e-06
-4.61313e-06
-1.01677e-06
-3.87226e-06
-2.88276e-07
-2.62309e-06
-9.61075e-07
-3.35208e-07
1.31332e-06
-1.15179e-06
3.4143e-06
-2.26762e-06
4.89629e-06
-3.5208e-06
5.73024e-06
-4.77862e-06
5.95555e-06
-5.9387e-06
5.64881e-06
-6.92574e-06
4.90214e-06
-7.68627e-06
3.81045e-06
-8.18348e-06
2.46569e-06
-8.39304e-06
9.56232e-07
-8.3009e-06
-6.30112e-07
-7.90327e-06
-2.20135e-06
-7.20924e-06
-3.65651e-06
-6.24534e-06
-4.88313e-06
-5.06268e-06
-5.75724e-06
-3.74414e-06
-6.15095e-06
-2.40969e-06
-5.94758e-06
-1.21631e-06
-5.06564e-06
-3.48953e-07
-3.49044e-06
-1.31003e-06
-3.91295e-07
1.70462e-06
-1.32836e-06
4.35137e-06
-2.58689e-06
6.15483e-06
-3.97472e-06
7.11808e-06
-5.34308e-06
7.32391e-06
-6.58549e-06
6.89121e-06
-7.63027e-06
5.94691e-06
-8.43115e-06
4.61133e-06
-8.95853e-06
2.99307e-06
-9.19279e-06
1.19049e-06
-9.12032e-06
-7.02581e-07
-8.73287e-06
-2.5888e-06
-8.03071e-06
-4.35867e-06
-7.02856e-06
-5.88528e-06
-5.76633e-06
-7.01947e-06
-4.3214e-06
-7.59588e-06
-2.82024e-06
-7.44874e-06
-1.44392e-06
-6.44196e-06
-4.20794e-07
-4.51357e-06
-1.73082e-06
-4.55624e-07
2.16024e-06
-1.5211e-06
5.41685e-06
-2.91854e-06
7.55226e-06
-4.42133e-06
8.62087e-06
-5.86693e-06
8.76951e-06
-7.15069e-06
8.17497e-06
-8.21171e-06
7.00794e-06
-9.01767e-06
5.41729e-06
-9.55171e-06
3.52711e-06
-9.80279e-06
1.44157e-06
-9.75963e-06
-7.45744e-07
-9.4092e-06
-2.93922e-06
-8.73922e-06
-5.02866e-06
-7.74734e-06
-6.87716e-06
-6.4535e-06
-8.31332e-06
-4.91938e-06
-9.13e-06
-3.26933e-06
-9.09878e-06
-1.70569e-06
-8.00561e-06
-5.07697e-07
-5.71156e-06
-2.23852e-06
-5.32408e-07
2.69265e-06
-1.73558e-06
6.62002e-06
-3.26066e-06
9.07734e-06
-4.84237e-06
1.02026e-05
-6.30981e-06
1.02369e-05
-7.57e-06
9.43517e-06
-8.58322e-06
8.02116e-06
-9.33997e-06
6.17404e-06
-9.84295e-06
4.03009e-06
-1.00942e-05
1.69284e-06
-1.00881e-05
-7.51883e-07
-9.80748e-06
-3.21982e-06
-9.22539e-06
-5.61075e-06
-8.31467e-06
-7.78788e-06
-7.0647e-06
-9.56328e-06
-5.50713e-06
-1.06876e-05
-3.7494e-06
-1.08565e-05
-2.00637e-06
-9.74864e-06
-6.14512e-07
-7.10342e-06
-2.85303e-06
-6.28648e-07
3.3213e-06
-1.97965e-06
7.97102e-06
-3.60746e-06
1.07051e-05
-5.20599e-06
1.18011e-05
-6.60781e-06
1.16388e-05
-7.74734e-06
1.05747e-05
-8.62016e-06
8.89398e-06
-9.25031e-06
6.80419e-06
-9.66784e-06
4.44762e-06
-9.89369e-06
1.9187e-06
-9.93003e-06
-7.15547e-07
-9.75621e-06
-3.39364e-06
-9.33057e-06
-6.03639e-06
-8.59657e-06
-8.52188e-06
-7.50097e-06
-1.06589e-05
-6.02616e-06
-1.21624e-05
-4.23944e-06
-1.26432e-05
-2.34847e-06
-1.16396e-05
-7.47876e-07
-8.70401e-06
-3.60091e-06
-7.56078e-07
4.07737e-06
-2.26362e-06
9.47856e-06
-3.94376e-06
1.23853e-05
-5.45599e-06
1.33133e-05
-6.65987e-06
1.28426e-05
-7.54121e-06
1.1456e-05
-8.14865e-06
9.50141e-06
-8.55133e-06
7.20687e-06
-8.81216e-06
4.70846e-06
-8.97374e-06
2.08028e-06
-9.05023e-06
-6.39064e-07
-9.02201e-06
-3.42187e-06
-8.83351e-06
-6.22489e-06
-8.39694e-06
-8.95844e-06
-7.60698e-06
-1.14488e-05
-6.37479e-06
-1.33946e-05
-4.69496e-06
-1.4323e-05
-2.72929e-06
-1.36053e-05
-9.17264e-07
-1.0516e-05
-4.51817e-06
-9.33813e-07
5.01119e-06
-2.59594e-06
1.11407e-05
-4.22897e-06
1.40183e-05
-5.48781e-06
1.45722e-05
-6.30203e-06
1.36569e-05
-6.74209e-06
1.18961e-05
-6.92863e-06
9.68795e-06
-6.98207e-06
7.26031e-06
-7.00099e-06
4.72738e-06
-7.05104e-06
2.13033e-06
-7.15949e-06
-5.30612e-07
-7.311e-06
-3.27036e-06
-7.44275e-06
-6.09315e-06
-7.44123e-06
-8.95996e-06
-7.14731e-06
-1.17428e-05
-6.38214e-06
-1.41597e-05
-5.0274e-06
-1.56778e-05
-3.13238e-06
-1.55003e-05
-1.1357e-06
-1.25127e-05
-5.65387e-06
-1.18568e-06
6.19687e-06
-2.96167e-06
1.29167e-05
-4.35906e-06
1.54157e-05
-5.10087e-06
1.5314e-05
-5.26345e-06
1.38194e-05
-5.04021e-06
1.16729e-05
-4.63281e-06
9.28055e-06
-4.21354e-06
6.84103e-06
-3.90887e-06
4.42271e-06
-3.7996e-06
2.02106e-06
-3.92365e-06
-4.06563e-07
-4.27466e-06
-2.91935e-06
-4.79446e-06
-5.57334e-06
-5.36076e-06
-8.39367e-06
-5.77528e-06
-1.13282e-05
-5.76887e-06
-1.41662e-05
-5.05645e-06
-1.63902e-05
-3.50386e-06
-1.70529e-05
-1.41522e-06
-1.46013e-05
-7.06909e-06
-1.51922e-06
7.71609e-06
-3.26286e-06
1.46603e-05
-4.07507e-06
1.62279e-05
-3.91463e-06
1.51536e-05
-3.10025e-06
1.30051e-05
-1.97506e-06
1.05477e-05
-8.23454e-07
8.12894e-06
1.55498e-07
5.86208e-06
8.33601e-07
3.7446e-06
1.13316e-06
1.7215e-06
1.01384e-06
-2.87238e-07
4.69611e-07
-2.37512e-06
-4.62614e-07
-4.64112e-06
-1.6826e-06
-7.17368e-06
-2.99366e-06
-1.00172e-05
-4.0688e-06
-1.3091e-05
-4.4433e-06
-1.60157e-05
-3.67512e-06
-1.78211e-05
-1.73987e-06
-1.65366e-05
-8.80897e-06
-1.8738e-06
9.58989e-06
-3.17973e-06
1.59662e-05
-2.78175e-06
1.58299e-05
-1.1851e-06
1.35569e-05
9.50481e-07
1.08695e-05
3.13411e-06
8.36405e-06
5.06781e-06
6.19523e-06
6.58867e-06
4.34122e-06
7.61057e-06
2.72271e-06
8.0867e-06
1.24536e-06
7.98813e-06
-1.88668e-07
7.29635e-06
-1.68334e-06
6.01038e-06
-3.35515e-06
4.16805e-06
-5.33135e-06
1.89445e-06
-7.74359e-06
-5.19867e-07
-1.06767e-05
-2.514e-06
-1.40216e-05
-3.23765e-06
-1.70974e-05
-2.00363e-06
-1.77706e-05
-1.08126e-05
-2.05064e-06
1.16405e-05
-1.79202e-06
1.57076e-05
8.97435e-07
1.31405e-05
4.50761e-06
9.94673e-06
8.0838e-06
7.2933e-06
1.11999e-05
5.24795e-06
1.37012e-05
3.6939e-06
1.55499e-05
2.49254e-06
1.67516e-05
1.52106e-06
1.73167e-05
6.80189e-07
1.72417e-05
-1.13663e-07
1.65002e-05
-9.41816e-07
1.50468e-05
-1.90172e-06
1.28251e-05
-3.10963e-06
9.8081e-06
-4.72664e-06
6.08792e-06
-6.95651e-06
2.06009e-06
-9.99375e-06
-1.22775e-06
-1.38096e-05
-1.95763e-06
-1.70407e-05
-1.27702e-05
-8.53319e-07
1.24939e-05
3.89438e-06
1.09599e-05
1.0048e-05
6.98685e-06
1.55263e-05
4.46844e-06
1.98987e-05
2.92091e-06
2.3225e-05
1.92158e-06
2.56586e-05
1.26028e-06
2.73462e-05
8.05016e-07
2.83981e-05
4.6916e-07
2.88815e-05
1.96789e-07
2.88186e-05
-5.08207e-08
2.81855e-05
-3.08666e-07
2.69082e-05
-6.24463e-07
2.48509e-05
-1.05231e-06
2.18133e-05
-1.68899e-06
1.75544e-05
-2.69767e-06
1.19047e-05
-4.34407e-06
5.19854e-06
-7.10339e-06
-3.67846e-07
-1.14743e-05
-1.31381e-05
1.24939e-05
2.34538e-05
3.04406e-05
3.49091e-05
3.783e-05
3.97516e-05
4.10118e-05
4.18169e-05
4.2286e-05
4.24828e-05
4.2432e-05
4.21233e-05
4.14989e-05
4.04465e-05
3.87576e-05
3.60599e-05
3.17158e-05
2.46124e-05
1.31381e-05
)
;

boundaryField
{
    movingWall
    {
        type            calculated;
        value           uniform 0;
    }
    fixedWalls
    {
        type            calculated;
        value           uniform 0;
    }
    frontAndBack
    {
        type            empty;
        value           nonuniform 0();
    }
}


// ************************************************************************* //
