/*--------------------------------*- C++ -*----------------------------------*\
  =========                 |
  \\      /  F ield         | OpenFOAM: The Open Source CFD Toolbox
   \\    /   O peration     | Website:  https://openfoam.org
    \\  /    A nd           | Version:  6
     \\/     M anipulation  |
\*---------------------------------------------------------------------------*/
FoamFile
{
    version     2.0;
    format      ascii;
    class       volVectorField;
    location    "0.1";
    object      U;
}
// * * * * * * * * * * * * * * * * * * * * * * * * * * * * * * * * * * * * * //

dimensions      [0 1 -1 0 0 0 0];

internalField   nonuniform List<vector> 
400
(
(0.000181245 -0.000185361 0)
(-5.49796e-05 2.18674e-05 0)
(-0.00135206 0.000276753 0)
(-0.00356398 0.000452702 0)
(-0.0063405 0.000540865 0)
(-0.00930455 0.000551942 0)
(-0.0121191 0.000499747 0)
(-0.0145034 0.000398164 0)
(-0.0162401 0.00026035 0)
(-0.0171737 9.92237e-05 0)
(-0.0172208 -7.29047e-05 0)
(-0.0163633 -0.000242198 0)
(-0.014663 -0.000393016 0)
(-0.0122624 -0.000508183 0)
(-0.00938806 -0.000569485 0)
(-0.00634621 -0.00055938 0)
(-0.00350714 -0.000463626 0)
(-0.00127328 -0.000274795 0)
(1.08008e-06 -1.01388e-05 0)
(0.000196489 0.000196477 0)
(-9.46835e-06 3.50161e-05 0)
(-0.00171339 0.00171687 0)
(-0.00570069 0.00360066 0)
(-0.0115913 0.0049812 0)
(-0.0186149 0.00567634 0)
(-0.0259602 0.00569445 0)
(-0.0328708 0.00511658 0)
(-0.0386962 0.00405311 0)
(-0.0429223 0.00262577 0)
(-0.0451815 0.000965847 0)
(-0.0452768 -0.000795138 0)
(-0.0431734 -0.0025107 0)
(-0.0390243 -0.00402654 0)
(-0.0331708 -0.00518195 0)
(-0.0261434 -0.00582004 0)
(-0.0186417 -0.00580636 0)
(-0.0114878 -0.00505835 0)
(-0.00554654 -0.00359392 0)
(-0.0015979 -0.00164525 0)
(1.82714e-05 2.83196e-05 0)
(-0.000259741 0.00131074 0)
(-0.00376256 0.00572614 0)
(-0.0104726 0.0100386 0)
(-0.0196821 0.0131231 0)
(-0.0302655 0.0146132 0)
(-0.0411217 0.0145027 0)
(-0.051226 0.0129573 0)
(-0.0596897 0.0102272 0)
(-0.065805 0.00660464 0)
(-0.0690698 0.00240675 0)
(-0.0692063 -0.00203024 0)
(-0.0661732 -0.00634791 0)
(-0.06018 -0.0101678 0)
(-0.0516953 -0.0131033 0)
(-0.0414427 -0.0147863 0)
(-0.0303725 -0.0149126 0)
(-0.0195962 -0.0133102 0)
(-0.0102933 -0.0100397 0)
(-0.00361456 -0.00557373 0)
(-0.00022449 -0.00116933 0)
(-0.000475227 0.0036661 0)
(-0.00573941 0.0120971 0)
(-0.0151105 0.0195473 0)
(-0.0274711 0.0246712 0)
(-0.0413073 0.0269943 0)
(-0.0552606 0.0265331 0)
(-0.0681064 0.0235725 0)
(-0.0787939 0.0185423 0)
(-0.0864906 0.0119499 0)
(-0.0906073 0.00434947 0)
(-0.0908148 -0.0036681 0)
(-0.0870588 -0.0114749 0)
(-0.0795753 -0.0184111 0)
(-0.0689032 -0.0238059 0)
(-0.0558852 -0.0270223 0)
(-0.0416432 -0.0275343 0)
(-0.0275142 -0.0250372 0)
(-0.0149699 -0.0195968 0)
(-0.00558099 -0.0118654 0)
(-0.000432456 -0.00342636 0)
(-0.000662938 0.00701299 0)
(-0.00760477 0.0207012 0)
(-0.0195709 0.0319415 0)
(-0.0349948 0.0393391 0)
(-0.0519397 0.0424325 0)
(-0.0687878 0.0413417 0)
(-0.0841437 0.0365271 0)
(-0.0968398 0.0286411 0)
(-0.105965 0.0184399 0)
(-0.110877 0.00674326 0)
(-0.111211 -0.00557754 0)
(-0.106893 -0.0175985 0)
(-0.0981551 -0.0283474 0)
(-0.0855607 -0.0368301 0)
(-0.0700176 -0.0420915 0)
(-0.0527731 -0.0433218 0)
(-0.0353682 -0.0400105 0)
(-0.0195875 -0.0321408 0)
(-0.00748098 -0.0204356 0)
(-0.000615395 -0.00667193 0)
(-0.000841065 0.011294 0)
(-0.00942699 0.0314715 0)
(-0.0239648 0.0471606 0)
(-0.0424138 0.057042 0)
(-0.0623877 0.0607995 0)
(-0.0820046 0.0587643 0)
(-0.0997191 0.051651 0)
(-0.114283 0.0403859 0)
(-0.124744 0.0260047 0)
(-0.130437 0.00960755 0)
(-0.130975 -0.00764768 0)
(-0.126253 -0.0245352 0)
(-0.116472 -0.0397577 0)
(-0.102173 -0.0519687 0)
(-0.0842785 -0.0598427 0)
(-0.0641204 -0.0622065 0)
(-0.0434308 -0.0582369 0)
(-0.024333 -0.0477096 0)
(-0.00941866 -0.031294 0)
(-0.000796064 -0.0108777 0)
(-0.00102517 0.0165048 0)
(-0.0112889 0.044411 0)
(-0.0284263 0.065203 0)
(-0.0498863 0.0777466 0)
(-0.0728086 0.0820155 0)
(-0.0950517 0.0786834 0)
(-0.11495 0.068817 0)
(-0.131217 0.0536769 0)
(-0.142908 0.0346051 0)
(-0.149366 0.0129844 0)
(-0.150198 -0.00975363 0)
(-0.145261 -0.0320972 0)
(-0.134691 -0.0524292 0)
(-0.118955 -0.0690343 0)
(-0.0989281 -0.0801614 0)
(-0.0759712 -0.0841758 0)
(-0.0519778 -0.0798006 0)
(-0.0294264 -0.0664399 0)
(-0.0115202 -0.0445598 0)
(-0.000996 -0.01609 0)
(-0.00122955 0.0226882 0)
(-0.0132691 0.0595819 0)
(-0.033072 0.0860929 0)
(-0.0575159 0.101401 0)
(-0.083239 0.105947 0)
(-0.107861 0.100908 0)
(-0.129648 0.0878219 0)
(-0.147343 0.0683494 0)
(-0.160067 0.0441606 0)
(-0.167226 0.0169063 0)
(-0.168441 -0.0117438 0)
(-0.16353 -0.0400341 0)
(-0.152527 -0.0660592 0)
(-0.13576 -0.0877361 0)
(-0.11397 -0.102839 0)
(-0.0884595 -0.109158 0)
(-0.0612174 -0.104784 0)
(-0.0350701 -0.0885304 0)
(-0.0139114 -0.0604548 0)
(-0.00123681 -0.0224275 0)
(-0.00146984 0.029931 0)
(-0.0154455 0.0770941 0)
(-0.0379951 0.109851 0)
(-0.0653303 0.127883 0)
(-0.0935583 0.132332 0)
(-0.120108 0.125087 0)
(-0.143266 0.108296 0)
(-0.161904 0.084095 0)
(-0.175302 0.0544901 0)
(-0.182994 0.0213644 0)
(-0.184662 -0.0134401 0)
(-0.180082 -0.0480007 0)
(-0.16915 -0.0801902 0)
(-0.151979 -0.107591 0)
(-0.129057 -0.127471 0)
(-0.101489 -0.136926 0)
(-0.0712394 -0.133195 0)
(-0.0414277 -0.1142 0)
(-0.0167167 -0.0792871 0)
(-0.00154239 -0.0300788 0)
(-0.00176754 0.0383681 0)
(-0.0179115 0.0970937 0)
(-0.0432754 0.136454 0)
(-0.07327 0.156923 0)
(-0.103452 0.160681 0)
(-0.131153 0.150598 0)
(-0.154822 0.129602 0)
(-0.173604 0.100372 0)
(-0.187065 0.0652433 0)
(-0.194961 0.0262653 0)
(-0.197096 -0.0146515 0)
(-0.193225 -0.0555447 0)
(-0.183051 -0.0941528 0)
(-0.1664 -0.127825 0)
(-0.143359 -0.153331 0)
(-0.114634 -0.166964 0)
(-0.0819582 -0.16485 0)
(-0.0486085 -0.143617 0)
(-0.0200674 -0.101428 0)
(-0.00194357 -0.039306 0)
(-0.00215797 0.0482013 0)
(-0.0208033 0.119757 0)
(-0.0489947 0.165773 0)
(-0.0811692 0.188001 0)
(-0.112351 0.190147 0)
(-0.139949 0.176418 0)
(-0.162791 0.150713 0)
(-0.180497 0.116307 0)
(-0.193071 0.0758247 0)
(-0.200611 0.0313854 0)
(-0.203116 -0.0151856 0)
(-0.200344 -0.0620214 0)
(-0.191857 -0.106986 0)
(-0.177029 -0.147265 0)
(-0.155392 -0.179226 0)
(-0.126997 -0.198298 0)
(-0.0930271 -0.199218 0)
(-0.0566445 -0.17679 0)
(-0.024115 -0.127276 0)
(-0.0024849 -0.0504577 0)
(-0.00270352 0.0597422 0)
(-0.0243374 0.145289 0)
(-0.055241 0.197488 0)
(-0.0886938 0.220189 0)
(-0.119311 0.219353 0)
(-0.144885 0.200968 0)
(-0.164944 0.170088 0)
(-0.179829 0.130599 0)
(-0.190161 0.0853291 0)
(-0.196533 0.0362911 0)
(-0.199192 -0.014915 0)
(-0.197958 -0.0667856 0)
(-0.192202 -0.117453 0)
(-0.180881 -0.164258 0)
(-0.162784 -0.203329 0)
(-0.136992 -0.229271 0)
(-0.103688 -0.235179 0)
(-0.0654346 -0.213394 0)
(-0.0290458 -0.157203 0)
(-0.00323681 -0.0639991 0)
(-0.00351744 0.0734918 0)
(-0.0288538 0.173904 0)
(-0.0620633 0.23092 0)
(-0.0951689 0.251924 0)
(-0.122752 0.246167 0)
(-0.143502 0.221935 0)
(-0.158084 0.185562 0)
(-0.167839 0.14146 0)
(-0.174214 0.0924728 0)
(-0.178289 0.0403596 0)
(-0.180664 -0.0137825 0)
(-0.18132 -0.0690087 0)
(-0.179493 -0.124025 0)
(-0.173714 -0.176624 0)
(-0.161946 -0.223037 0)
(-0.141996 -0.257277 0)
(-0.112498 -0.270692 0)
(-0.0746147 -0.252488 0)
(-0.0350864 -0.191449 0)
(-0.0043167 -0.080564 0)
(-0.00480374 0.0902594 0)
(-0.0348349 0.205763 0)
(-0.0692745 0.264719 0)
(-0.0991417 0.280617 0)
(-0.119939 0.267421 0)
(-0.131987 0.236131 0)
(-0.137649 0.194303 0)
(-0.139505 0.146622 0)
(-0.13982 0.0956872 0)
(-0.140273 0.0427092 0)
(-0.141814 -0.0118841 0)
(-0.144587 -0.0679315 0)
(-0.147829 -0.124997 0)
(-0.149781 -0.181707 0)
(-0.147656 -0.234895 0)
(-0.137828 -0.278511 0)
(-0.116824 -0.302372 0)
(-0.0832441 -0.292055 0)
(-0.0424542 -0.22989 0)
(-0.00592029 -0.101013 0)
(-0.00685404 0.111256 0)
(-0.042703 0.24061 0)
(-0.0757805 0.296228 0)
(-0.0975245 0.302156 0)
(-0.105965 0.278604 0)
(-0.104435 0.239428 0)
(-0.0971841 0.192916 0)
(-0.0881893 0.143519 0)
(-0.0804491 0.0931862 0)
(-0.0760167 0.0423329 0)
(-0.0760751 -0.00946007 0)
(-0.0809601 -0.0629475 0)
(-0.0900734 -0.118736 0)
(-0.101675 -0.176644 0)
(-0.112597 -0.234735 0)
(-0.118009 -0.287818 0)
(-0.111902 -0.324807 0)
(-0.0890313 -0.328398 0)
(-0.0510839 -0.271564 0)
(-0.00829948 -0.126432 0)
(-0.00986025 0.138336 0)
(-0.0520345 0.277039 0)
(-0.0779688 0.320409 0)
(-0.0835532 0.310018 0)
(-0.0724754 0.273682 0)
(-0.0515159 0.226969 0)
(-0.0275819 0.17787 0)
(-0.00551101 0.129788 0)
(0.0115465 0.083479 0)
(0.0216082 0.0383469 0)
(0.0235318 -0.00688883 0)
(0.0168437 -0.0538342 0)
(0.0017883 -0.10412 0)
(-0.0203899 -0.158929 0)
(-0.046893 -0.218131 0)
(-0.0725798 -0.27853 0)
(-0.0891895 -0.330545 0)
(-0.0867758 -0.353894 0)
(-0.0595629 -0.31368 0)
(-0.0114991 -0.158242 0)
(-0.0137766 0.175372 0)
(-0.0593564 0.311173 0)
(-0.0660739 0.327877 0)
(-0.0435228 0.294829 0)
(-0.00360122 0.245301 0)
(0.0414349 0.194017 0)
(0.083638 0.146659 0)
(0.118753 0.104292 0)
(0.14449 0.0660745 0)
(0.159651 0.0304188 0)
(0.163543 -0.00457408 0)
(0.155699 -0.0410185 0)
(0.135865 -0.081223 0)
(0.104256 -0.127518 0)
(0.06222 -0.181801 0)
(0.0135445 -0.244056 0)
(-0.0336133 -0.308897 0)
(-0.0647318 -0.358255 0)
(-0.0628786 -0.349935 0)
(-0.0152202 -0.199558 0)
(-0.0182986 0.226789 0)
(-0.051509 0.331426 0)
(-0.0162781 0.302844 0)
(0.0523506 0.244553 0)
(0.127278 0.18742 0)
(0.19538 0.139251 0)
(0.25196 0.100388 0)
(0.29554 0.0689597 0)
(0.326017 0.0426846 0)
(0.343676 0.0194253 0)
(0.348641 -0.00278678 0)
(0.340643 -0.0259674 0)
(0.318929 -0.0524189 0)
(0.282391 -0.0848416 0)
(0.22995 -0.126548 0)
(0.161718 -0.180919 0)
(0.0814086 -0.24911 0)
(0.00180442 -0.323257 0)
(-0.0464948 -0.365463 0)
(-0.0185082 -0.252173 0)
(0.000987489 0.256073 0)
(0.0216909 0.296604 0)
(0.135243 0.222396 0)
(0.258595 0.154249 0)
(0.358845 0.105541 0)
(0.435451 0.0718246 0)
(0.492426 0.0483713 0)
(0.533132 0.0315486 0)
(0.560173 0.0187569 0)
(0.575346 0.00817664 0)
(0.579523 -0.00155268 0)
(0.572788 -0.0116853 0)
(0.554097 -0.0238262 0)
(0.521421 -0.0398777 0)
(0.471415 -0.0629196 0)
(0.399334 -0.0976813 0)
(0.299193 -0.150643 0)
(0.169288 -0.227759 0)
(0.0407588 -0.314276 0)
(0.00501089 -0.274275 0)
(0.267422 0.116497 0)
(0.377145 0.101437 0)
(0.538777 0.0535707 0)
(0.658087 0.0285194 0)
(0.732013 0.0165273 0)
(0.778956 0.00982332 0)
(0.809784 0.00582829 0)
(0.829884 0.00338569 0)
(0.84231 0.00178763 0)
(0.848833 0.000617098 0)
(0.850169 -0.000413961 0)
(0.846777 -0.00141736 0)
(0.83771 -0.002805 0)
(0.821417 -0.00489884 0)
(0.794989 -0.00835982 0)
(0.752716 -0.0144112 0)
(0.683043 -0.0256811 0)
(0.565447 -0.0500955 0)
(0.398149 -0.0994425 0)
(0.276538 -0.118107 0)
)
;

boundaryField
{
    movingWall
    {
        type            fixedValue;
        value           uniform (1 0 0);
    }
    fixedWalls
    {
        type            noSlip;
    }
    frontAndBack
    {
        type            empty;
    }
}


// ************************************************************************* //
