/*--------------------------------*- C++ -*----------------------------------*\
  =========                 |
  \\      /  F ield         | OpenFOAM: The Open Source CFD Toolbox
   \\    /   O peration     | Website:  https://openfoam.org
    \\  /    A nd           | Version:  6
     \\/     M anipulation  |
\*---------------------------------------------------------------------------*/
FoamFile
{
    version     2.0;
    format      ascii;
    class       volScalarField;
    location    "0.442876";
    object      p;
}
// * * * * * * * * * * * * * * * * * * * * * * * * * * * * * * * * * * * * * //

dimensions      [0 2 -2 0 0 0 0];

internalField   nonuniform List<scalar> 
400
(
-5.06122e-07
-0.00508883
-0.0114951
-0.0163451
-0.0179685
-0.0156645
-0.00937714
0.000488867
0.0131954
0.0277662
0.0430635
0.0578628
0.0709375
0.0811663
0.0876664
0.0899499
0.0880962
0.0829439
0.0763572
0.0712925
0.00497844
-0.000264408
-0.00597449
-0.00988917
-0.0109767
-0.00876785
-0.00322632
0.00532112
0.0162679
0.0288005
0.0419611
0.0547125
0.0660145
0.0749179
0.0806793
0.0828903
0.0816039
0.0774139
0.071542
0.0663397
0.0116645
0.00510487
-0.00103602
-0.00469878
-0.00557906
-0.00353339
0.00139184
0.00889775
0.0184691
0.0294214
0.0409438
0.052149
0.0621364
0.0700722
0.0752855
0.0773764
0.0763005
0.0723251
0.0659705
0.0594187
0.0175434
0.00895873
0.00144062
-0.00271047
-0.00376124
-0.00188111
0.00276212
0.00983834
0.0188573
0.0291941
0.0401115
0.0507923
0.0603875
0.068083
0.0731837
0.0752123
0.0739743
0.0694267
0.0615673
0.0528866
0.0209345
0.010118
0.000892731
-0.00401775
-0.00532774
-0.00348245
0.00122179
0.00839609
0.0175376
0.0280378
0.0391854
0.0501807
0.0601676
0.0682883
0.0737583
0.0759659
0.074535
0.0691364
0.0593722
0.0482673
0.020622
0.0075369
-0.00344751
-0.00911292
-0.0105607
-0.00848861
-0.00332208
0.00447818
0.0143765
0.0257565
0.0379043
0.0500045
0.0611561
0.0704121
0.076849
0.0796715
0.0782858
0.0720709
0.0602819
0.0466022
0.0155122
0.000156585
-0.0125243
-0.018777
-0.020083
-0.0173955
-0.0112758
-0.00226602
0.00905477
0.0220506
0.0359919
0.0500309
0.0631972
0.0744216
0.0825955
0.0866853
0.0858227
0.0790455
0.0652373
0.0488419
0.00444839
-0.0131709
-0.0274014
-0.0339255
-0.0346516
-0.0308219
-0.0231531
-0.0122782
0.00117736
0.0165605
0.0331297
0.0500055
0.0661417
0.0803251
0.0912204
0.0974902
0.0979057
0.091057
0.0753515
0.0560921
-0.0139293
-0.0337848
-0.0493108
-0.0556075
-0.0551193
-0.0494506
-0.0395083
-0.0260273
-0.00967253
0.00890405
0.0289736
0.0496486
0.0698233
0.0881379
0.102996
0.112683
0.115488
0.109376
0.0920711
0.0698248
-0.0413314
-0.0633333
-0.079721
-0.085019
-0.0824043
-0.0739675
-0.0608592
-0.0439264
-0.023854
-0.00125425
0.0232073
0.0486893
0.0740736
0.0978815
0.118243
0.132991
0.139775
0.135668
0.117366
0.0921167
-0.0800243
-0.103926
-0.120411
-0.123493
-0.117415
-0.104945
-0.0875499
-0.0661909
-0.0415335
-0.0140838
0.0156394
0.0469328
0.0787586
0.109593
0.137321
0.159272
0.172277
0.172138
0.153971
0.125967
-0.133175
-0.158366
-0.173554
-0.172451
-0.160909
-0.142652
-0.119542
-0.0926303
-0.0624897
-0.0294149
0.00634655
0.0443686
0.0838428
0.123343
0.160618
0.192502
0.214844
0.221687
0.205718
0.175779
-0.205508
-0.230541
-0.241811
-0.233275
-0.213248
-0.186764
-0.15612
-0.122376
-0.0858705
-0.0465284
-0.00415281
0.0412993
0.0894655
0.139254
0.188502
0.233706
0.269656
0.288091
0.278033
0.248165
-0.304661
-0.326109
-0.328395
-0.307021
-0.27398
-0.235936
-0.195522
-0.153574
-0.109948
-0.0639644
-0.0147549
0.0384345
0.0959732
0.157448
0.221191
0.28375
0.339065
0.376158
0.378775
0.353555
-0.443724
-0.453528
-0.437007
-0.393881
-0.341211
-0.287267
-0.234539
-0.183127
-0.131975
-0.0794626
-0.0237721
0.0368386
0.103807
0.177857
0.258443
0.342943
0.425208
0.491732
0.519375
0.509023
-0.644044
-0.624756
-0.571223
-0.492193
-0.410736
-0.33572
-0.26825
-0.206681
-0.148347
-0.0902328
-0.0292647
0.0375574
0.113083
0.199719
0.298943
0.410302
0.529179
0.640902
0.714779
0.740207
-0.939717
-0.855425
-0.731347
-0.595302
-0.474031
-0.373205
-0.289896
-0.219003
-0.15525
-0.0937278
-0.029878
0.0407097
0.122532
0.220241
0.338501
0.481087
0.647858
0.826697
0.981965
1.08223
-1.43033
-1.17432
-0.903554
-0.681359
-0.512354
-0.385714
-0.289755
-0.213818
-0.149067
-0.0884451
-0.0259825
0.0439605
0.127413
0.231488
0.365041
0.538628
0.762306
1.03991
1.35512
1.63948
-2.49049
-1.64585
-1.04396
-0.704619
-0.493834
-0.352641
-0.25554
-0.184673
-0.12733
-0.0748051
-0.020461
0.0417643
0.118608
0.21895
0.355816
0.548445
0.82529
1.2428
1.91972
2.82612
-4.50102
-2.26775
-1.1451
-0.682224
-0.437701
-0.291124
-0.20204
-0.143558
-0.0990584
-0.0589074
-0.0165629
0.033698
0.0984357
0.187212
0.316295
0.514208
0.831953
1.40183
2.64078
4.99543
)
;

boundaryField
{
    movingWall
    {
        type            zeroGradient;
    }
    fixedWalls
    {
        type            zeroGradient;
    }
    frontAndBack
    {
        type            empty;
    }
}


// ************************************************************************* //
