/*--------------------------------*- C++ -*----------------------------------*\
  =========                 |
  \\      /  F ield         | OpenFOAM: The Open Source CFD Toolbox
   \\    /   O peration     | Website:  https://openfoam.org
    \\  /    A nd           | Version:  6
     \\/     M anipulation  |
\*---------------------------------------------------------------------------*/
FoamFile
{
    version     2.0;
    format      ascii;
    class       surfaceScalarField;
    location    "0.442876";
    object      phi;
}
// * * * * * * * * * * * * * * * * * * * * * * * * * * * * * * * * * * * * * //

dimensions      [0 3 -1 0 0 0 0];

internalField   nonuniform List<scalar> 
760
(
6.8197e-09
-6.81513e-09
-3.24443e-08
3.9264e-08
-1.23407e-07
9.0963e-08
-2.51613e-07
1.28206e-07
-3.98423e-07
1.46809e-07
-5.45836e-07
1.47413e-07
-6.782e-07
1.32364e-07
-7.82867e-07
1.04668e-07
-8.50425e-07
6.75579e-08
-8.74816e-07
2.43908e-08
-8.53504e-07
-2.13123e-08
-7.87715e-07
-6.57883e-08
-6.8271e-07
-1.05005e-07
-5.47957e-07
-1.34754e-07
-3.97048e-07
-1.50909e-07
-2.47146e-07
-1.49902e-07
-1.17694e-07
-1.29452e-07
-2.79366e-08
-8.97571e-08
8.59687e-09
-3.65335e-08
8.59688e-09
-3.81299e-08
3.13148e-08
-1.85603e-07
1.86737e-07
-4.39283e-07
3.44644e-07
-7.69057e-07
4.57979e-07
-1.13544e-06
5.13192e-07
-1.49854e-06
5.1051e-07
-1.82246e-06
4.56288e-07
-2.07755e-06
3.59755e-07
-2.24149e-06
2.31496e-07
-2.29996e-06
8.2869e-08
-2.24721e-06
-7.4065e-08
-2.08652e-06
-2.26477e-07
-1.8307e-06
-3.60831e-07
-1.50214e-06
-4.63313e-07
-1.13228e-06
-5.20766e-07
-7.59869e-07
-5.22314e-07
-4.27548e-07
-4.61773e-07
-1.7603e-07
-3.41275e-07
-3.40042e-08
-1.78559e-07
-2.54074e-08
-9.36631e-08
1.24978e-07
-3.59598e-07
4.52672e-07
-7.67857e-07
7.52903e-07
-1.27204e-06
9.6216e-07
-1.81788e-06
1.05903e-06
-2.35121e-06
1.04384e-06
-2.82309e-06
9.2817e-07
-3.19284e-06
7.29507e-07
-3.42976e-06
4.6841e-07
-3.51414e-06
1.67254e-07
-3.43812e-06
-1.50091e-07
-3.20629e-06
-4.583e-07
-2.83629e-06
-7.30837e-07
-2.35876e-06
-9.40844e-07
-1.81651e-06
-1.06302e-06
-1.26213e-06
-1.07669e-06
-7.53563e-07
-9.70336e-07
-3.47155e-07
-7.47683e-07
-8.79872e-08
-4.37727e-07
-1.13395e-07
-1.45819e-07
2.70797e-07
-5.27269e-07
8.34122e-07
-1.0843e-06
1.30994e-06
-1.75048e-06
1.62834e-06
-2.45693e-06
1.76548e-06
-3.13792e-06
1.72484e-06
-3.73526e-06
1.52551e-06
-4.20099e-06
1.19524e-06
-4.49905e-06
7.66467e-07
-4.60627e-06
2.74475e-07
-4.51319e-06
-2.43168e-07
-4.22482e-06
-7.46665e-07
-3.76132e-06
-1.19434e-06
-3.15822e-06
-1.54395e-06
-2.46577e-06
-1.75547e-06
-1.74672e-06
-1.79574e-06
-1.07203e-06
-1.64503e-06
-5.14199e-07
-1.30551e-06
-1.39171e-07
-8.12756e-07
-2.52565e-07
-1.94134e-07
4.64931e-07
-6.86571e-07
1.32656e-06
-1.38784e-06
2.01121e-06
-2.20943e-06
2.44992e-06
-3.06688e-06
2.62293e-06
-3.88377e-06
2.54173e-06
-4.59462e-06
2.23635e-06
-5.14657e-06
1.74719e-06
-5.50029e-06
1.12019e-06
-5.63041e-06
4.04588e-07
-5.52605e-06
-3.47527e-07
-5.19165e-06
-1.08107e-06
-4.64789e-06
-1.73809e-06
-3.93262e-06
-2.25922e-06
-3.10096e-06
-2.58713e-06
-2.22409e-06
-2.67261e-06
-1.38587e-06
-2.48324e-06
-6.77044e-07
-2.01434e-06
-1.87629e-07
-1.30217e-06
-4.40194e-07
-2.40763e-07
7.05694e-07
-8.41965e-07
1.92776e-06
-1.68499e-06
2.85424e-06
-2.658e-06
3.42293e-06
-3.66026e-06
3.6252e-06
-4.60515e-06
3.48662e-06
-5.42143e-06
3.05263e-06
-6.05332e-06
2.37908e-06
-6.45991e-06
1.52678e-06
-6.61466e-06
5.59345e-07
-6.50536e-06
-4.56829e-07
-6.1348e-06
-1.45163e-06
-5.52224e-06
-2.35064e-06
-4.70534e-06
-3.07612e-06
-3.74178e-06
-3.55069e-06
-2.7098e-06
-3.70458e-06
-1.7065e-06
-3.48655e-06
-8.42998e-07
-2.87784e-06
-2.36458e-07
-1.90871e-06
-6.76651e-07
-2.8807e-07
9.93764e-07
-9.98835e-07
2.63853e-06
-1.98296e-06
3.83837e-06
-3.10387e-06
4.54383e-06
-4.24422e-06
4.76554e-06
-5.30817e-06
4.55057e-06
-6.22069e-06
3.96515e-06
-6.92532e-06
3.08371e-06
-7.38164e-06
1.9831e-06
-7.56317e-06
7.40872e-07
-7.45644e-06
-5.63552e-07
-7.06153e-06
-1.84654e-06
-6.39406e-06
-3.01812e-06
-5.48851e-06
-3.98167e-06
-4.40213e-06
-4.63707e-06
-3.21812e-06
-4.8886e-06
-2.04648e-06
-4.65819e-06
-1.02075e-06
-3.90356e-06
-2.89184e-07
-2.64028e-06
-9.65835e-07
-3.38279e-07
1.33204e-06
-1.16209e-06
3.46234e-06
-2.28734e-06
4.96362e-06
-3.55057e-06
5.80707e-06
-4.81797e-06
6.03294e-06
-5.98647e-06
5.71907e-06
-6.98027e-06
4.95895e-06
-7.74554e-06
3.84898e-06
-8.24512e-06
2.48267e-06
-8.4544e-06
9.5016e-07
-8.35917e-06
-6.58781e-07
-7.95566e-06
-2.25005e-06
-7.2532e-06
-3.72059e-06
-6.27922e-06
-4.95565e-06
-5.08608e-06
-5.83021e-06
-3.7581e-06
-6.21658e-06
-2.41643e-06
-5.99986e-06
-1.21862e-06
-5.10137e-06
-3.4931e-07
-3.50959e-06
-1.31514e-06
-3.93659e-07
1.7257e-06
-1.33613e-06
4.4048e-06
-2.6014e-06
6.22889e-06
-3.99608e-06
7.20174e-06
-5.37076e-06
7.40762e-06
-6.61871e-06
6.96702e-06
-7.66817e-06
6.0084e-06
-8.4727e-06
4.65352e-06
-9.00246e-06
3.01243e-06
-9.23745e-06
1.18515e-06
-9.16372e-06
-7.32512e-07
-8.77277e-06
-2.641e-06
-8.06458e-06
-4.42877e-06
-7.05449e-06
-5.96574e-06
-5.78346e-06
-7.10124e-06
-4.3304e-06
-7.66964e-06
-2.82329e-06
-7.50697e-06
-1.44399e-06
-6.48067e-06
-4.20379e-07
-4.53321e-06
-1.73552e-06
-4.5704e-07
2.18274e-06
-1.52548e-06
5.47324e-06
-2.9261e-06
7.62951e-06
-4.4316e-06
8.70725e-06
-5.87943e-06
8.85544e-06
-7.16524e-06
8.25284e-06
-8.2285e-06
7.07166e-06
-9.03695e-06
5.46197e-06
-9.57354e-06
3.54901e-06
-9.82668e-06
1.4383e-06
-9.78458e-06
-7.74609e-07
-9.43359e-06
-2.992e-06
-8.76121e-06
-5.10115e-06
-7.7645e-06
-6.96245e-06
-6.46414e-06
-8.4016e-06
-4.9234e-06
-9.21038e-06
-3.2685e-06
-9.16187e-06
-1.70321e-06
-8.04596e-06
-5.06319e-07
-5.7301e-06
-2.24184e-06
-5.32717e-07
2.71546e-06
-1.73592e-06
6.67644e-06
-3.25998e-06
9.15358e-06
-4.83963e-06
1.02869e-05
-6.30471e-06
1.03205e-05
-7.56317e-06
9.5113e-06
-8.57602e-06
8.08451e-06
-9.33412e-06
6.22008e-06
-9.84005e-06
4.05494e-06
-1.00955e-05
1.69374e-06
-1.00936e-05
-7.76523e-07
-9.81598e-06
-3.26961e-06
-9.23517e-06
-5.68196e-06
-8.32339e-06
-7.87423e-06
-7.06987e-06
-9.65512e-06
-5.50737e-06
-1.07729e-05
-3.74539e-06
-1.09238e-05
-2.0014e-06
-9.78994e-06
-6.1202e-07
-7.11948e-06
-2.85386e-06
-6.27798e-07
3.34326e-06
-1.97551e-06
8.02416e-06
-3.5978e-06
1.07759e-05
-5.18939e-06
1.18785e-05
-6.58429e-06
1.17154e-05
-7.71837e-06
1.06454e-05
-8.58827e-06
8.95441e-06
-9.21863e-06
6.85044e-06
-9.63921e-06
4.47552e-06
-9.87011e-06
1.92464e-06
-9.91294e-06
-7.337e-07
-9.74647e-06
-3.43608e-06
-9.3273e-06
-6.10113e-06
-8.59741e-06
-8.60412e-06
-7.50248e-06
-1.075e-05
-6.02513e-06
-1.22502e-05
-4.23409e-06
-1.27149e-05
-2.34167e-06
-1.16824e-05
-7.4419e-07
-8.71696e-06
-3.59805e-06
-7.54121e-07
4.09738e-06
-2.25471e-06
9.52475e-06
-3.92524e-06
1.24464e-05
-5.42635e-06
1.33796e-05
-6.61949e-06
1.29086e-05
-7.49211e-06
1.1518e-05
-8.09408e-06
9.55638e-06
-8.4948e-06
7.25116e-06
-8.75755e-06
4.73827e-06
-8.92491e-06
2.092e-06
-9.01035e-06
-6.48264e-07
-8.99314e-06
-3.45328e-06
-8.81632e-06
-6.27795e-06
-8.39006e-06
-9.03038e-06
-7.6067e-06
-1.15334e-05
-6.37622e-06
-1.34807e-05
-4.69141e-06
-1.43997e-05
-2.72234e-06
-1.36514e-05
-9.12504e-07
-1.05268e-05
-4.51056e-06
-9.30376e-07
5.02775e-06
-2.58203e-06
1.11764e-05
-4.20372e-06
1.40681e-05
-5.44906e-06
1.46249e-05
-6.24994e-06
1.37094e-05
-6.67871e-06
1.19468e-05
-6.85711e-06
9.73478e-06
-6.90692e-06
7.30098e-06
-6.92667e-06
4.75802e-06
-6.98166e-06
2.14699e-06
-7.09899e-06
-5.30933e-07
-7.26307e-06
-3.28919e-06
-7.41037e-06
-6.13065e-06
-7.4255e-06
-9.01525e-06
-7.14599e-06
-1.18129e-05
-6.39022e-06
-1.42365e-05
-5.03013e-06
-1.57598e-05
-3.12863e-06
-1.55529e-05
-1.1305e-06
-1.25249e-05
-5.64105e-06
-1.1806e-06
6.20836e-06
-2.94519e-06
1.2941e-05
-4.33168e-06
1.54546e-05
-5.0608e-06
1.53541e-05
-5.20785e-06
1.38565e-05
-4.97e-06
1.17089e-05
-4.55335e-06
9.31813e-06
-4.12926e-06
6.87688e-06
-3.82328e-06
4.45204e-06
-3.71628e-06
2.03999e-06
-3.84672e-06
-4.00497e-07
-4.20893e-06
-2.92698e-06
-4.74528e-06
-5.5943e-06
-5.33275e-06
-8.42778e-06
-5.77003e-06
-1.13756e-05
-5.78175e-06
-1.42248e-05
-5.07537e-06
-1.64662e-05
-3.50743e-06
-1.71209e-05
-1.41129e-06
-1.46211e-05
-7.05234e-06
-1.51446e-06
7.72281e-06
-3.25191e-06
1.46784e-05
-4.05363e-06
1.62563e-05
-3.87454e-06
1.5175e-05
-3.04057e-06
1.30225e-05
-1.90422e-06
1.05726e-05
-7.45533e-07
8.15944e-06
2.38948e-07
5.8924e-06
9.20894e-07
3.7701e-06
1.22179e-06
1.7391e-06
1.10033e-06
-2.7904e-07
5.49257e-07
-2.37591e-06
-3.96288e-07
-4.64876e-06
-1.63704e-06
-7.18702e-06
-2.97523e-06
-1.00375e-05
-4.07798e-06
-1.3122e-05
-4.47627e-06
-1.60679e-05
-3.69895e-06
-1.78982e-05
-1.74194e-06
-1.65781e-05
-8.79428e-06
-1.87414e-06
9.59696e-06
-3.18145e-06
1.59857e-05
-2.76198e-06
1.58368e-05
-1.13864e-06
1.35516e-05
1.0062e-06
1.08777e-05
3.19355e-06
8.38521e-06
5.13284e-06
6.22015e-06
6.66068e-06
4.36456e-06
7.68925e-06
2.74153e-06
8.17024e-06
1.25811e-06
8.07382e-06
-1.82623e-07
7.38083e-06
-1.68291e-06
6.08827e-06
-3.3562e-06
4.23218e-06
-5.33094e-06
1.93558e-06
-7.74084e-06
-5.10788e-07
-1.06757e-05
-2.54336e-06
-1.40353e-05
-3.29102e-06
-1.71505e-05
-2.02829e-06
-1.78408e-05
-1.08226e-05
-2.05897e-06
1.16559e-05
-1.79833e-06
1.57251e-05
9.27418e-07
1.31111e-05
4.54513e-06
9.93392e-06
8.11682e-06
7.30599e-06
1.12355e-05
5.26651e-06
1.3745e-05
3.71067e-06
1.56035e-05
2.50608e-06
1.68139e-05
1.53109e-06
1.73856e-05
6.86456e-07
1.73145e-05
-1.11605e-07
1.65755e-05
-9.43897e-07
1.51216e-05
-1.90228e-06
1.28962e-05
-3.10557e-06
9.87008e-06
-4.7147e-06
6.12798e-06
-6.93355e-06
2.05673e-06
-9.96406e-06
-1.29202e-06
-1.38018e-05
-2.03325e-06
-1.70996e-05
-1.28558e-05
-8.81745e-07
1.25377e-05
3.90258e-06
1.09408e-05
1.00686e-05
6.94508e-06
1.55321e-05
4.47042e-06
1.99036e-05
2.93447e-06
2.32389e-05
1.93118e-06
2.56838e-05
1.26585e-06
2.73812e-05
8.08597e-07
2.84406e-05
4.7171e-07
2.89286e-05
1.9848e-07
2.88681e-05
-5.11383e-08
2.82366e-05
-3.12339e-07
2.69601e-05
-6.25794e-07
2.4905e-05
-1.0505e-06
2.18727e-05
-1.68238e-06
1.76179e-05
-2.67875e-06
1.19518e-05
-4.29793e-06
5.17309e-06
-7.0231e-06
-4.81488e-07
-1.1445e-05
-1.33373e-05
1.25377e-05
2.34785e-05
3.04235e-05
3.48939e-05
3.78284e-05
3.97596e-05
4.10255e-05
4.1834e-05
4.23058e-05
4.25042e-05
4.24531e-05
4.21408e-05
4.1515e-05
4.04645e-05
3.87821e-05
3.61033e-05
3.18054e-05
2.47823e-05
1.33373e-05
)
;

boundaryField
{
    movingWall
    {
        type            calculated;
        value           uniform 0;
    }
    fixedWalls
    {
        type            calculated;
        value           uniform 0;
    }
    frontAndBack
    {
        type            empty;
        value           nonuniform 0();
    }
}


// ************************************************************************* //
