/*--------------------------------*- C++ -*----------------------------------*\
  =========                 |
  \\      /  F ield         | OpenFOAM: The Open Source CFD Toolbox
   \\    /   O peration     | Website:  https://openfoam.org
    \\  /    A nd           | Version:  6
     \\/     M anipulation  |
\*---------------------------------------------------------------------------*/
FoamFile
{
    version     2.0;
    format      ascii;
    class       volVectorField;
    location    "0.442876";
    object      U;
}
// * * * * * * * * * * * * * * * * * * * * * * * * * * * * * * * * * * * * * //

dimensions      [0 1 -1 0 0 0 0];

internalField   nonuniform List<vector> 
400
(
(0.000184877 -0.000187522 0)
(-5.85241e-05 2.41266e-05 0)
(-0.00138295 0.000281263 0)
(-0.00363681 0.000458094 0)
(-0.00646269 0.000545949 0)
(-0.00947695 0.000556078 0)
(-0.0123362 0.000502489 0)
(-0.0147549 0.0003993 0)
(-0.0165111 0.000259791 0)
(-0.0174492 9.66436e-05 0)
(-0.0174824 -7.72084e-05 0)
(-0.0165966 -0.000247709 0)
(-0.0148561 -0.000399125 0)
(-0.0124083 -0.00051407 0)
(-0.00948561 -0.000574245 0)
(-0.0064002 -0.000562159 0)
(-0.00352749 -0.00046377 0)
(-0.0012734 -0.000272034 0)
(8.14827e-06 -5.48057e-06 0)
(0.000200353 0.000200323 0)
(-9.60451e-06 3.73962e-05 0)
(-0.001749 0.00175417 0)
(-0.00581639 0.00367007 0)
(-0.0118192 0.00507225 0)
(-0.0189722 0.00577563 0)
(-0.0264475 0.00578891 0)
(-0.0334735 0.00519503 0)
(-0.0393871 0.00410709 0)
(-0.0436642 0.0026503 0)
(-0.0459357 0.000956409 0)
(-0.0459984 -0.000835664 0)
(-0.0438254 -0.00257774 0)
(-0.0395765 -0.00411212 0)
(-0.033605 -0.00527574 0)
(-0.0264549 -0.00591076 0)
(-0.0188394 -0.00588343 0)
(-0.0115921 -0.00511348 0)
(-0.00558584 -0.00362278 0)
(-0.00160216 -0.00165001 0)
(2.30177e-05 3.51176e-05 0)
(-0.000264552 0.00134092 0)
(-0.0038365 0.00584394 0)
(-0.0106758 0.0102328 0)
(-0.0200572 0.0133673 0)
(-0.0308329 0.0148752 0)
(-0.0418791 0.0147503 0)
(-0.0521506 0.0131625 0)
(-0.0607411 0.0103684 0)
(-0.0669302 0.00666767 0)
(-0.0702098 0.00238519 0)
(-0.0703009 -0.00213311 0)
(-0.067168 -0.00651961 0)
(-0.0610321 -0.0103881 0)
(-0.0523778 -0.0133466 0)
(-0.0419475 -0.015025 0)
(-0.0307098 -0.015121 0)
(-0.0197916 -0.0134686 0)
(-0.0103831 -0.0101372 0)
(-0.00363908 -0.00561252 0)
(-0.000220966 -0.00116924 0)
(-0.00048301 0.00374219 0)
(-0.00584588 0.0123363 0)
(-0.0153879 0.0199181 0)
(-0.0279672 0.0251244 0)
(-0.0420412 0.0274734 0)
(-0.0562252 0.0269823 0)
(-0.0692711 0.0239428 0)
(-0.0801089 0.0187957 0)
(-0.0878921 0.0120619 0)
(-0.0920243 0.00430981 0)
(-0.0921759 -0.00385329 0)
(-0.0882992 -0.0117837 0)
(-0.0806435 -0.0188079 0)
(-0.0697664 -0.0242456 0)
(-0.0565326 -0.0274569 0)
(-0.0420856 -0.0279193 0)
(-0.0277801 -0.0253388 0)
(-0.0151004 -0.0197959 0)
(-0.00562242 -0.0119613 0)
(-0.000430292 -0.00344271 0)
(-0.000672322 0.00715037 0)
(-0.00773324 0.0210934 0)
(-0.0198984 0.0325266 0)
(-0.0355704 0.040039 0)
(-0.0527787 0.0431625 0)
(-0.0698779 0.0420199 0)
(-0.0854488 0.0370826 0)
(-0.0983048 0.0290189 0)
(-0.107521 0.0186047 0)
(-0.112447 0.0066811 0)
(-0.11272 -0.00585736 0)
(-0.10827 -0.0180637 0)
(-0.0993435 -0.0289456 0)
(-0.0865239 -0.0374948 0)
(-0.070743 -0.0427514 0)
(-0.0532717 -0.0439117 0)
(-0.0356709 -0.0404806 0)
(-0.0197386 -0.0324625 0)
(-0.00753072 -0.0206046 0)
(-0.000613684 -0.00671187 0)
(-0.000850735 0.0115014 0)
(-0.00956469 0.0320344 0)
(-0.0243127 0.0479796 0)
(-0.043018 0.0580053 0)
(-0.0632584 0.0617924 0)
(-0.0831256 0.059679 0)
(-0.101052 0.0523957 0)
(-0.115772 0.0408898 0)
(-0.126323 0.0262221 0)
(-0.13203 0.00952065 0)
(-0.132506 -0.00802681 0)
(-0.127653 -0.0251647 0)
(-0.117681 -0.0405683 0)
(-0.103152 -0.0528716 0)
(-0.0850128 -0.0607419 0)
(-0.0646215 -0.0630138 0)
(-0.0437316 -0.0588853 0)
(-0.0244812 -0.048161 0)
(-0.0094663 -0.0315405 0)
(-0.000793779 -0.0109433 0)
(-0.0010339 0.016784 0)
(-0.0114222 0.0451467 0)
(-0.0287622 0.0662548 0)
(-0.0504637 0.0789672 0)
(-0.0736317 0.0832608 0)
(-0.0961021 0.0798226 0)
(-0.116191 0.0697401 0)
(-0.132601 0.0542996 0)
(-0.144373 0.0348728 0)
(-0.150848 0.012875 0)
(-0.151627 -0.0102269 0)
(-0.146571 -0.0328851 0)
(-0.135825 -0.0534482 0)
(-0.11987 -0.0701733 0)
(-0.0996071 -0.0812988 0)
(-0.0764245 -0.0851983 0)
(-0.05224 -0.0806225 0)
(-0.0295485 -0.0670135 0)
(-0.0115552 -0.0448766 0)
(-0.000992183 -0.0161778 0)
(-0.0012362 0.0230342 0)
(-0.0133847 0.0604764 0)
(-0.0333636 0.0873546 0)
(-0.0580109 0.102849 0)
(-0.0839349 0.107412 0)
(-0.10874 0.102241 0)
(-0.13068 0.0888986 0)
(-0.148493 0.0690766 0)
(-0.16129 0.044476 0)
(-0.16847 0.016783 0)
(-0.169652 -0.0122943 0)
(-0.164651 -0.0409596 0)
(-0.153502 -0.0672662 0)
(-0.136545 -0.0890938 0)
(-0.114543 -0.1042 0)
(-0.0888252 -0.110381 0)
(-0.0614111 -0.105762 0)
(-0.035146 -0.0892062 0)
(-0.0139239 -0.0608235 0)
(-0.00123038 -0.0225288 0)
(-0.00147333 0.0303325 0)
(-0.0155311 0.0781177 0)
(-0.0382127 0.111279 0)
(-0.0656912 0.129505 0)
(-0.0940529 0.13396 0)
(-0.120722 0.126562 0)
(-0.143982 0.10949 0)
(-0.162704 0.0849068 0)
(-0.176164 0.0548521 0)
(-0.18389 0.0212436 0)
(-0.185554 -0.0140379 0)
(-0.180928 -0.0490261 0)
(-0.169901 -0.0815468 0)
(-0.152586 -0.109133 0)
(-0.12949 -0.129027 0)
(-0.101744 -0.138325 0)
(-0.0713462 -0.134304 0)
(-0.0414427 -0.114949 0)
(-0.016698 -0.0796808 0)
(-0.0015322 -0.0301802 0)
(-0.00176694 0.038808 0)
(-0.0179571 0.0982029 0)
(-0.043394 0.137984 0)
(-0.073453 0.158644 0)
(-0.103683 0.162398 0)
(-0.131424 0.152152 0)
(-0.155134 0.130866 0)
(-0.173964 0.101246 0)
(-0.187477 0.0656546 0)
(-0.195424 0.0261725 0)
(-0.197592 -0.0152511 0)
(-0.193724 -0.0566024 0)
(-0.183531 -0.0955958 0)
(-0.166805 -0.129498 0)
(-0.143644 -0.155043 0)
(-0.114779 -0.168511 0)
(-0.0819774 -0.166065 0)
(-0.0485568 -0.14441 0)
(-0.0200104 -0.101814 0)
(-0.00192813 -0.0393897 0)
(-0.00215253 0.0486586 0)
(-0.0208014 0.120897 0)
(-0.0489954 0.167326 0)
(-0.0811422 0.189729 0)
(-0.112274 0.191864 0)
(-0.139825 0.177977 0)
(-0.162643 0.151997 0)
(-0.180358 0.117221 0)
(-0.192977 0.0762921 0)
(-0.200594 0.0313489 0)
(-0.203183 -0.015738 0)
(-0.200497 -0.0630771 0)
(-0.19205 -0.108448 0)
(-0.17723 -0.149003 0)
(-0.155546 -0.181043 0)
(-0.127059 -0.199961 0)
(-0.092981 -0.200519 0)
(-0.0565326 -0.177602 0)
(-0.0240151 -0.127622 0)
(-0.00246233 -0.0505022 0)
(-0.00269287 0.0601935 0)
(-0.0242833 0.146396 0)
(-0.0551121 0.198974 0)
(-0.0884414 0.221827 0)
(-0.118909 0.220977 0)
(-0.144351 0.202454 0)
(-0.164321 0.17134 0)
(-0.179176 0.13153 0)
(-0.189552 0.085854 0)
(-0.196002 0.0363569 0)
(-0.198777 -0.0153544 0)
(-0.197691 -0.0677254 0)
(-0.192081 -0.118839 0)
(-0.180876 -0.165973 0)
(-0.162832 -0.205183 0)
(-0.137019 -0.231014 0)
(-0.103627 -0.236562 0)
(-0.0652884 -0.21422 0)
(-0.0289032 -0.157485 0)
(-0.00320445 -0.0639796 0)
(-0.00350203 0.0739142 0)
(-0.0287436 0.174911 0)
(-0.0618005 0.232249 0)
(-0.0947035 0.253373 0)
(-0.122048 0.247611 0)
(-0.142594 0.223279 0)
(-0.157027 0.18673 0)
(-0.166716 0.142376 0)
(-0.173081 0.0930625 0)
(-0.177234 0.0405402 0)
(-0.179766 -0.0140608 0)
(-0.180625 -0.0697606 0)
(-0.179034 -0.125227 0)
(-0.173489 -0.178199 0)
(-0.161905 -0.224831 0)
(-0.142053 -0.259046 0)
(-0.112502 -0.27217 0)
(-0.0744892 -0.253358 0)
(-0.0349118 -0.191666 0)
(-0.0042721 -0.0804573 0)
(-0.00478248 0.0906264 0)
(-0.0346563 0.206586 0)
(-0.0688824 0.265823 0)
(-0.0985434 0.28182 0)
(-0.119021 0.268617 0)
(-0.13082 0.237267 0)
(-0.136279 0.195332 0)
(-0.138015 0.147484 0)
(-0.138304 0.0963017 0)
(-0.138817 0.0430018 0)
(-0.140497 -0.0119732 0)
(-0.143484 -0.0684354 0)
(-0.147012 -0.125918 0)
(-0.149301 -0.183012 0)
(-0.147512 -0.236491 0)
(-0.137967 -0.2802 0)
(-0.11699 -0.303941 0)
(-0.0832399 -0.293042 0)
(-0.042282 -0.230088 0)
(-0.00586591 -0.100806 0)
(-0.00682738 0.111533 0)
(-0.0424679 0.241183 0)
(-0.0753404 0.297109 0)
(-0.0969058 0.303077 0)
(-0.105034 0.27951 0)
(-0.103131 0.240302 0)
(-0.0956623 0.193762 0)
(-0.0865354 0.14429 0)
(-0.078734 0.0937976 0)
(-0.0743096 0.042705 0)
(-0.0744501 -0.00938482 0)
(-0.0795048 -0.0631972 0)
(-0.0888936 -0.119316 0)
(-0.100881 -0.177553 0)
(-0.112269 -0.235948 0)
(-0.118164 -0.289202 0)
(-0.112305 -0.326513 0)
(-0.0893324 -0.32943 0)
(-0.0509928 -0.271794 0)
(-0.00824851 -0.126094 0)
(-0.00983942 0.138471 0)
(-0.0518407 0.277383 0)
(-0.0776983 0.321088 0)
(-0.083072 0.310689 0)
(-0.0713788 0.27424 0)
(-0.0501741 0.227564 0)
(-0.0260912 0.178548 0)
(-0.00389117 0.130459 0)
(0.0132639 0.0840453 0)
(0.0233812 0.0387346 0)
(0.0253029 -0.00672087 0)
(0.0185356 -0.0538907 0)
(0.00328895 -0.104379 0)
(-0.0192254 -0.159388 0)
(-0.0462213 -0.218825 0)
(-0.0725038 -0.279508 0)
(-0.0897396 -0.331951 0)
(-0.0874922 -0.35558 0)
(-0.059815 -0.314046 0)
(-0.011501 -0.157713 0)
(-0.0137789 0.175309 0)
(-0.0594204 0.311462 0)
(-0.0661712 0.32834 0)
(-0.042707 0.295 0)
(-0.00248845 0.245523 0)
(0.0425627 0.194484 0)
(0.0848699 0.147241 0)
(0.120123 0.104862 0)
(0.146006 0.0665463 0)
(0.161286 0.0307445 0)
(0.165253 -0.00441303 0)
(0.157427 -0.0410008 0)
(0.137525 -0.0812826 0)
(0.105724 -0.127611 0)
(0.0633355 -0.18194 0)
(0.0141002 -0.244366 0)
(-0.0337926 -0.309636 0)
(-0.065816 -0.359807 0)
(-0.0639515 -0.351097 0)
(-0.0155338 -0.199145 0)
(-0.0184108 0.226819 0)
(-0.0523039 0.331822 0)
(-0.0158282 0.302501 0)
(0.0532132 0.244303 0)
(0.127933 0.187674 0)
(0.196032 0.139705 0)
(0.252747 0.100848 0)
(0.296523 0.0693525 0)
(0.327194 0.0429823 0)
(0.345006 0.0196158 0)
(0.350079 -0.00271331 0)
(0.342143 -0.025984 0)
(0.320453 -0.0524259 0)
(0.28388 -0.084768 0)
(0.231334 -0.126343 0)
(0.162861 -0.180599 0)
(0.0820223 -0.248938 0)
(0.00123306 -0.323965 0)
(-0.048821 -0.367642 0)
(-0.0204668 -0.253886 0)
(-0.000960941 0.25793 0)
(0.0213697 0.297088 0)
(0.135876 0.2215 0)
(0.258785 0.154123 0)
(0.358962 0.105761 0)
(0.435661 0.072018 0)
(0.49284 0.0484895 0)
(0.533764 0.031624 0)
(0.560977 0.0188096 0)
(0.576261 0.00821053 0)
(0.58053 -0.00155891 0)
(0.573803 -0.0117554 0)
(0.555141 -0.0238198 0)
(0.522499 -0.0397544 0)
(0.472568 -0.0626103 0)
(0.40065 -0.0970102 0)
(0.300693 -0.149378 0)
(0.170238 -0.226109 0)
(0.0384118 -0.314298 0)
(0.000100559 -0.27751 0)
(0.265711 0.115847 0)
(0.379119 0.101839 0)
(0.538107 0.0538767 0)
(0.657966 0.0284532 0)
(0.732141 0.0164506 0)
(0.779106 0.0097525 0)
(0.810029 0.00574818 0)
(0.83022 0.00331792 0)
(0.842697 0.00174476 0)
(0.849231 0.000594051 0)
(0.850674 -0.000400994 0)
(0.847147 -0.00145186 0)
(0.838042 -0.00280514 0)
(0.821804 -0.00485268 0)
(0.795451 -0.00828802 0)
(0.753456 -0.0143194 0)
(0.684483 -0.0255576 0)
(0.568059 -0.0499361 0)
(0.401566 -0.0998252 0)
(0.280133 -0.12047 0)
)
;

boundaryField
{
    movingWall
    {
        type            fixedValue;
        value           uniform (1 0 0);
    }
    fixedWalls
    {
        type            noSlip;
    }
    frontAndBack
    {
        type            empty;
    }
}


// ************************************************************************* //
