/*--------------------------------*- C++ -*----------------------------------*\
| =========                 |                                                 |
| \\      /  F ield         | OpenFOAM: The Open Source CFD Toolbox           |
|  \\    /   O peration     | Version:  5.0                                   |
|   \\  /    A nd           | Web:      www.OpenFOAM.org                      |
|    \\/     M anipulation  |                                                 |
\*---------------------------------------------------------------------------*/
FoamFile
{
    version     2.0;
    format      ascii;
    class       volScalarField;
    location    "4";
    object      k;
}
// * * * * * * * * * * * * * * * * * * * * * * * * * * * * * * * * * * * * * //

dimensions      [0 2 -2 0 0 0 0];

internalField   nonuniform List<scalar> 
400
(
3.10336e-10
3.2027e-09
9.4177e-09
4.44086e-08
2.21843e-07
6.93505e-07
1.40936e-06
2.21428e-06
3.0625e-06
3.92655e-06
4.85731e-06
5.90692e-06
7.26463e-06
9.13813e-06
1.00252e-05
1.03553e-05
9.02835e-06
5.3554e-06
2.25252e-06
1.0168e-06
4.61279e-09
8.03895e-08
2.73265e-07
8.73328e-07
2.60163e-06
6.87625e-06
1.54972e-05
2.84412e-05
4.48188e-05
6.15532e-05
7.77781e-05
9.02112e-05
9.7076e-05
9.97229e-05
9.98184e-05
8.99596e-05
7.26706e-05
4.0292e-05
1.36716e-05
4.84117e-06
4.21724e-08
5.25495e-07
1.63241e-06
4.82036e-06
1.38844e-05
3.70668e-05
7.99882e-05
0.000144645
0.000205674
0.000256235
0.000295597
0.000315398
0.000324396
0.000325428
0.000306388
0.000278509
0.000230839
0.000145639
4.30407e-05
1.137e-05
1.81742e-07
1.80553e-06
5.38534e-06
1.64423e-05
4.91782e-05
0.000131042
0.000228629
0.000303635
0.000360435
0.000403055
0.000438468
0.000460112
0.000481249
0.000497771
0.000509449
0.000512145
0.00046789
0.000351354
0.000107238
1.88515e-05
4.32986e-07
4.08939e-06
1.3332e-05
4.47193e-05
0.000121109
0.000223022
0.000291813
0.000334196
0.000369848
0.000399119
0.000427354
0.000453871
0.000484717
0.000520634
0.00056653
0.000617725
0.000635473
0.00056727
0.000212419
2.66167e-05
1.01025e-06
9.42402e-06
2.92103e-05
8.00971e-05
0.000172105
0.00025567
0.00029435
0.000323758
0.000337734
0.000343096
0.000353968
0.000379368
0.000418769
0.00047415
0.000550262
0.000651429
0.000729049
0.000719499
0.000352408
3.42177e-05
1.35732e-06
1.31991e-05
4.06259e-05
0.000103288
0.000201753
0.000258474
0.000281762
0.00028596
0.000262096
0.000251378
0.000249666
0.000274104
0.000313516
0.00037802
0.000471848
0.00061062
0.000771251
0.000829466
0.000470792
4.10394e-05
1.4457e-06
1.69494e-05
5.00109e-05
0.000121459
0.00021329
0.000249061
0.000250997
0.000213062
0.000168431
0.000146761
0.0001396
0.000154403
0.000194407
0.000266557
0.000372116
0.000531548
0.000776324
0.000908925
0.000595444
4.78003e-05
1.30708e-06
1.74787e-05
5.27568e-05
0.000128701
0.000210165
0.000231148
0.000209509
0.000142869
9.97798e-05
8.03899e-05
7.4337e-05
8.11979e-05
0.000100276
0.000147565
0.000263074
0.000436142
0.000720424
0.000956631
0.000698781
5.35586e-05
9.44891e-07
1.67527e-05
5.14227e-05
0.000126351
0.000201745
0.000210535
0.000170373
0.000100896
6.93063e-05
5.80972e-05
5.56371e-05
5.92252e-05
6.64447e-05
8.70418e-05
0.000157361
0.000332936
0.000638803
0.000989515
0.000795851
5.91141e-05
7.08775e-07
1.4803e-05
4.7371e-05
0.000118525
0.000185874
0.00019258
0.000140672
8.15087e-05
5.89596e-05
5.37783e-05
5.44048e-05
5.62192e-05
5.95457e-05
6.7481e-05
0.00010277
0.000244943
0.000546582
0.00100173
0.000870784
6.36378e-05
5.2678e-07
1.11919e-05
3.92278e-05
0.000102123
0.000168941
0.000176469
0.000137116
8.20828e-05
5.90802e-05
5.39164e-05
5.63031e-05
6.13872e-05
6.11876e-05
6.42782e-05
8.18133e-05
0.000177187
0.000460917
0.0010043
0.000913213
6.79494e-05
3.54944e-07
7.19324e-06
2.87191e-05
8.1449e-05
0.000143963
0.000157872
0.000138028
8.95405e-05
6.35956e-05
5.70163e-05
5.88895e-05
6.55447e-05
6.76066e-05
6.763e-05
7.58034e-05
0.00014209
0.000390654
0.000999547
0.000930574
7.22104e-05
2.05093e-07
4.10105e-06
1.88189e-05
5.67338e-05
0.000120333
0.000140438
0.000134511
0.000110057
7.97217e-05
6.8364e-05
6.89434e-05
7.27287e-05
7.225e-05
7.00852e-05
7.44776e-05
0.000122283
0.000335531
0.00097736
0.000915871
7.698e-05
9.76622e-08
2.06056e-06
1.05807e-05
3.32987e-05
8.65365e-05
0.000119782
0.000124198
0.000116802
0.000100511
8.75691e-05
8.25125e-05
8.06994e-05
7.48714e-05
7.0902e-05
7.38503e-05
0.000112569
0.000297271
0.000933133
0.000809131
8.13339e-05
4.03338e-08
9.644e-07
5.55181e-06
1.8079e-05
5.15174e-05
8.9549e-05
0.000108283
0.000109517
0.000104695
9.43897e-05
8.73108e-05
8.23725e-05
7.05049e-05
6.56213e-05
7.02902e-05
0.000108499
0.000280234
0.000864719
0.000711133
8.26357e-05
2.13034e-08
4.57325e-07
2.55448e-06
8.28822e-06
2.27931e-05
5.00404e-05
7.1829e-05
8.56159e-05
8.86245e-05
8.54148e-05
7.96515e-05
6.79227e-05
5.87479e-05
5.97166e-05
6.86694e-05
0.000112336
0.000279205
0.000786758
0.000579657
7.87213e-05
7.14556e-08
6.16249e-07
2.31661e-06
6.00767e-06
1.21731e-05
2.56921e-05
3.87e-05
4.83937e-05
5.3272e-05
5.35649e-05
5.20906e-05
5.05087e-05
5.21477e-05
6.13149e-05
9.0681e-05
0.000175619
0.000437172
0.000755853
0.000450279
7.03322e-05
7.3311e-07
4.24383e-06
8.00467e-06
1.41802e-05
1.81152e-05
2.8326e-05
3.54646e-05
4.76004e-05
5.39395e-05
6.4451e-05
7.44115e-05
9.43998e-05
0.00013157
0.000221533
0.000356988
0.000670883
0.000992906
0.00083128
0.000309311
5.62701e-05
3.67414e-07
8.54317e-07
1.6028e-06
3.33646e-06
4.33807e-06
6.47634e-06
7.88917e-06
9.83769e-06
1.14971e-05
1.23509e-05
1.36717e-05
1.44015e-05
1.59486e-05
1.8996e-05
2.441e-05
3.51172e-05
4.5057e-05
4.91271e-05
4.6135e-05
3.42002e-05
)
;

boundaryField
{
    movingWall
    {
        type            kqRWallFunction;
        value           nonuniform List<scalar> 
20
(
3.67414e-07
8.54317e-07
1.6028e-06
3.33646e-06
4.33807e-06
6.47634e-06
7.88917e-06
9.83769e-06
1.14971e-05
1.23509e-05
1.36717e-05
1.44015e-05
1.59486e-05
1.8996e-05
2.441e-05
3.51172e-05
4.5057e-05
4.91271e-05
4.6135e-05
3.42002e-05
)
;
    }
    fixedWalls
    {
        type            kqRWallFunction;
        value           nonuniform List<scalar> 
60
(
3.10336e-10
4.61279e-09
4.21724e-08
1.81742e-07
4.32986e-07
1.01025e-06
1.35732e-06
1.4457e-06
1.30708e-06
9.44891e-07
7.08775e-07
5.2678e-07
3.54944e-07
2.05093e-07
9.76622e-08
4.03338e-08
2.13034e-08
7.14556e-08
7.3311e-07
3.67414e-07
1.0168e-06
4.84117e-06
1.137e-05
1.88515e-05
2.66167e-05
3.42177e-05
4.10394e-05
4.78003e-05
5.35586e-05
5.91141e-05
6.36378e-05
6.79494e-05
7.22104e-05
7.698e-05
8.13339e-05
8.26357e-05
7.87213e-05
7.03322e-05
5.62701e-05
3.42002e-05
3.10336e-10
3.2027e-09
9.4177e-09
4.44086e-08
2.21843e-07
6.93505e-07
1.40936e-06
2.21428e-06
3.0625e-06
3.92655e-06
4.85731e-06
5.90692e-06
7.26463e-06
9.13813e-06
1.00252e-05
1.03553e-05
9.02835e-06
5.3554e-06
2.25252e-06
1.0168e-06
)
;
    }
    frontAndBack
    {
        type            empty;
    }
}


// ************************************************************************* //
