/*--------------------------------*- C++ -*----------------------------------*\
| =========                 |                                                 |
| \\      /  F ield         | OpenFOAM: The Open Source CFD Toolbox           |
|  \\    /   O peration     | Version:  5.0                                   |
|   \\  /    A nd           | Web:      www.OpenFOAM.org                      |
|    \\/     M anipulation  |                                                 |
\*---------------------------------------------------------------------------*/
FoamFile
{
    version     2.0;
    format      ascii;
    class       volScalarField;
    location    "4";
    object      nut;
}
// * * * * * * * * * * * * * * * * * * * * * * * * * * * * * * * * * * * * * //

dimensions      [0 2 -1 0 0 0 0];

internalField   nonuniform List<scalar> 
400
(
2.4245e-12
2.50211e-11
7.35758e-11
3.46942e-10
1.73315e-09
5.41801e-09
1.10106e-08
1.72991e-08
2.39258e-08
3.06762e-08
3.79478e-08
4.61478e-08
5.67549e-08
7.13916e-08
7.8322e-08
8.09009e-08
7.0534e-08
4.1839e-08
1.75978e-08
7.94377e-09
3.60374e-11
2.29752e-09
5.62335e-09
1.25112e-08
3.42806e-08
9.4407e-08
2.51609e-07
5.34049e-07
1.01551e-06
1.59001e-06
2.26338e-06
2.78084e-06
3.0422e-06
2.93418e-06
2.72511e-06
2.18312e-06
1.49571e-06
6.58993e-07
1.59168e-07
3.78216e-08
3.29471e-10
1.53566e-08
3.62553e-08
9.7109e-08
2.92753e-07
1.00602e-06
2.72695e-06
5.8667e-06
9.49017e-06
1.25847e-05
1.48888e-05
1.59382e-05
1.56961e-05
1.4778e-05
1.24707e-05
9.65968e-06
6.30448e-06
2.86761e-06
5.3894e-07
8.88283e-08
1.41986e-09
5.10644e-08
1.4156e-07
4.36902e-07
1.63298e-06
5.97471e-06
1.26086e-05
1.95498e-05
2.54244e-05
2.98398e-05
3.31174e-05
3.48771e-05
3.50785e-05
3.37809e-05
3.06115e-05
2.54741e-05
1.75649e-05
8.83234e-06
1.52683e-06
1.47277e-07
3.3827e-09
1.18947e-07
4.09721e-07
1.55974e-06
5.95116e-06
1.47237e-05
2.2936e-05
3.03619e-05
3.63202e-05
4.0829e-05
4.43908e-05
4.71576e-05
4.81306e-05
4.7699e-05
4.46864e-05
3.90091e-05
2.9125e-05
1.66202e-05
3.33777e-06
2.07943e-07
7.89254e-09
2.92576e-07
1.06192e-06
3.5718e-06
1.15387e-05
2.2318e-05
3.01882e-05
3.7007e-05
4.06281e-05
4.21302e-05
4.3637e-05
4.5954e-05
4.90897e-05
5.24525e-05
5.38558e-05
5.07874e-05
4.0302e-05
2.45972e-05
6.07974e-06
2.67326e-07
1.06041e-08
4.38776e-07
1.69117e-06
5.66603e-06
1.68086e-05
2.71912e-05
3.35752e-05
3.60831e-05
3.3611e-05
3.22545e-05
3.15242e-05
3.3945e-05
3.82053e-05
4.47391e-05
5.18681e-05
5.43415e-05
4.76111e-05
3.08402e-05
8.62139e-06
3.2062e-07
1.12945e-08
5.92509e-07
2.38158e-06
7.88791e-06
2.04961e-05
2.88848e-05
3.14281e-05
2.72673e-05
2.15993e-05
1.84451e-05
1.70345e-05
1.85181e-05
2.30951e-05
3.17262e-05
4.29951e-05
5.30938e-05
5.4021e-05
3.7126e-05
1.14921e-05
3.7344e-07
1.02116e-08
6.38712e-07
2.71649e-06
9.25626e-06
2.1689e-05
2.78857e-05
2.66134e-05
1.84503e-05
1.29637e-05
1.04085e-05
9.43054e-06
9.82926e-06
1.17397e-05
1.70484e-05
3.06589e-05
4.62632e-05
5.43733e-05
4.12964e-05
1.39466e-05
4.18427e-07
7.38196e-09
5.99014e-07
2.87491e-06
9.81425e-06
2.17276e-05
2.57843e-05
2.19246e-05
1.3406e-05
9.69727e-06
8.46974e-06
8.19635e-06
8.09383e-06
8.03291e-06
9.95683e-06
1.79045e-05
3.61957e-05
5.24395e-05
4.58291e-05
1.64016e-05
4.61829e-07
5.5373e-09
4.8395e-07
2.66827e-06
9.33351e-06
2.00017e-05
2.40806e-05
1.86625e-05
1.16031e-05
9.17625e-06
8.84455e-06
9.06829e-06
8.88216e-06
8.11646e-06
7.7468e-06
1.12389e-05
2.66085e-05
4.68321e-05
4.84431e-05
1.83887e-05
4.9717e-07
4.11547e-09
3.06757e-07
2.14711e-06
7.93919e-06
1.79036e-05
2.20293e-05
1.87693e-05
1.23278e-05
9.71104e-06
9.34754e-06
9.83212e-06
1.03434e-05
9.23077e-06
7.58003e-06
8.56118e-06
1.81533e-05
4.0148e-05
5.07104e-05
1.98334e-05
5.30855e-07
2.773e-09
1.58731e-07
1.43677e-06
6.06926e-06
1.46656e-05
1.93792e-05
1.88255e-05
1.34355e-05
1.04309e-05
9.88716e-06
1.02861e-05
1.11994e-05
1.05355e-05
8.20325e-06
7.66036e-06
1.37814e-05
3.39514e-05
5.15364e-05
2.09983e-05
5.64144e-07
1.60229e-09
7.54939e-08
8.17053e-07
3.88717e-06
1.13335e-05
1.64519e-05
1.78962e-05
1.61616e-05
1.27657e-05
1.16268e-05
1.17954e-05
1.21948e-05
1.11896e-05
8.56105e-06
7.22277e-06
1.11685e-05
2.82112e-05
5.07943e-05
2.10942e-05
6.01406e-07
7.62986e-10
3.47557e-08
3.66975e-07
1.96849e-06
7.24808e-06
1.2773e-05
1.54717e-05
1.61771e-05
1.5172e-05
1.40849e-05
1.33109e-05
1.27204e-05
1.08576e-05
8.15128e-06
6.79388e-06
9.71931e-06
2.41046e-05
4.84369e-05
1.87043e-05
6.35421e-07
3.15108e-10
1.67084e-08
1.66223e-07
8.42316e-07
3.49552e-06
8.05565e-06
1.17613e-05
1.33971e-05
1.40428e-05
1.34772e-05
1.24612e-05
1.14306e-05
8.97202e-06
6.74427e-06
6.06146e-06
8.90081e-06
2.17127e-05
4.35224e-05
1.59783e-05
6.45592e-07
1.66433e-10
9.13204e-09
7.7536e-08
3.35263e-07
1.19661e-06
3.3007e-06
5.78637e-06
7.90267e-06
9.08435e-06
9.36999e-06
8.73064e-06
7.28087e-06
5.94161e-06
5.32841e-06
5.55144e-06
8.72791e-06
1.99557e-05
3.61788e-05
1.20963e-05
6.1501e-07
5.58247e-10
1.81708e-08
8.10189e-08
2.40979e-07
5.74106e-07
1.40791e-06
2.45049e-06
3.42503e-06
4.15849e-06
4.47868e-06
4.53312e-06
4.37458e-06
4.40213e-06
4.87415e-06
6.52868e-06
1.15709e-05
2.40622e-05
2.65951e-05
7.79681e-06
5.4947e-07
5.72742e-09
1.35294e-07
2.75882e-07
5.12283e-07
6.91771e-07
1.133e-06
1.51306e-06
2.098e-06
2.45931e-06
2.92065e-06
3.30112e-06
3.93611e-06
5.0363e-06
7.3415e-06
1.01983e-05
1.72953e-05
2.25757e-05
1.45643e-05
3.54442e-06
4.3961e-07
2.87042e-09
6.67435e-09
1.25219e-08
2.60661e-08
3.38912e-08
5.05964e-08
6.16342e-08
7.68569e-08
8.98208e-08
9.64913e-08
1.0681e-07
1.12512e-07
1.24598e-07
1.48406e-07
1.90703e-07
2.74353e-07
3.52008e-07
3.83806e-07
3.6043e-07
2.67189e-07
)
;

boundaryField
{
    movingWall
    {
        type            nutkWallFunction;
        Cmu             0.09;
        kappa           0.41;
        E               9.8;
        value           uniform 0;
    }
    fixedWalls
    {
        type            nutkWallFunction;
        Cmu             0.09;
        kappa           0.41;
        E               9.8;
        value           uniform 0;
    }
    frontAndBack
    {
        type            empty;
    }
}


// ************************************************************************* //
