/*--------------------------------*- C++ -*----------------------------------*\
| =========                 |                                                 |
| \\      /  F ield         | OpenFOAM: The Open Source CFD Toolbox           |
|  \\    /   O peration     | Version:  5.0                                   |
|   \\  /    A nd           | Web:      www.OpenFOAM.org                      |
|    \\/     M anipulation  |                                                 |
\*---------------------------------------------------------------------------*/
FoamFile
{
    version     2.0;
    format      ascii;
    class       volScalarField;
    location    "4";
    object      omega;
}
// * * * * * * * * * * * * * * * * * * * * * * * * * * * * * * * * * * * * * //

dimensions      [0 0 -1 0 0 0 0];

internalField   nonuniform List<scalar> 
400
(
128
128
128
128
128
128
128
128
128
128
128
128
128
128
128
128
128
128
128
128
128
34.9897
48.5947
69.8035
75.8923
72.8362
61.5924
53.2557
44.1343
38.7125
34.3638
32.4402
31.9098
33.9866
36.6292
41.2069
48.586
61.1418
85.8938
128
128
34.2195
45.0253
49.6386
47.4271
36.8449
29.3325
24.6553
21.6724
20.3608
19.8536
19.7888
20.6673
22.021
24.5686
28.8321
36.615
50.7875
79.8618
128
128
35.358
38.0428
37.634
30.1156
21.9327
18.1327
15.5314
14.1767
13.5073
13.2398
13.1924
13.7192
14.7352
16.6424
20.1045
26.6378
39.7804
70.2362
128
128
34.38
32.5393
28.671
20.3506
15.1471
12.7229
11.0071
10.183
9.77538
9.62708
9.62455
10.0709
10.915
12.6779
15.8354
21.8188
34.1313
63.6409
128
128
32.2105
27.5072
22.4249
14.9154
11.4558
9.75051
8.74857
8.31282
8.14369
8.11164
8.25537
8.53069
9.03961
10.2173
12.8266
18.0897
29.2513
57.9644
128
128
30.0817
24.0223
18.2294
12.003
9.50578
8.39197
7.92503
7.79792
7.79358
7.91982
8.07494
8.20609
8.44943
9.09707
11.2367
16.199
26.8956
54.6074
128
128
28.6062
20.9991
15.3981
10.4064
8.62257
7.98639
7.81385
7.79797
7.95666
8.19514
8.33794
8.41768
8.40178
8.65485
10.0115
14.3708
24.4821
51.8133
128
128
27.3655
19.421
13.9042
9.68994
8.28912
7.87232
7.74345
7.69688
7.72352
7.88258
8.26084
8.54162
8.65562
8.58069
9.42741
13.2496
23.165
50.104
128
128
27.9671
17.8867
12.8742
9.28521
8.16525
7.77084
7.52617
7.14698
6.85939
6.78803
7.31734
8.27157
8.74191
8.7889
9.19824
12.1817
21.5914
48.5228
128
128
30.5878
17.7535
12.6988
9.29288
7.99729
7.53767
7.02474
6.42524
6.08039
5.99945
6.32945
7.33641
8.71082
9.14406
9.20542
11.6711
20.6784
47.3543
128
128
36.4846
18.2701
12.8632
9.43619
8.01063
7.30534
6.65837
6.08382
5.76798
5.72644
5.9349
6.62865
8.47994
9.5563
9.76062
11.4805
19.8046
46.0443
128
128
45.3172
19.9886
13.4199
9.81634
8.14648
7.33197
6.66448
6.09683
5.7667
5.72518
5.85251
6.417
8.24429
9.89555
10.3102
11.5062
19.395
44.3166
128
128
54.3229
23.0326
14.5951
10.6175
8.53629
7.51615
6.80978
6.245
5.87984
5.84495
5.96391
6.4569
8.18651
10.3115
10.9489
11.8935
19.2415
43.4181
128
128
59.2868
28.8322
16.9159
11.9392
9.37777
8.02738
7.22023
6.62475
6.21724
6.19888
6.34409
6.89575
8.69827
10.8701
11.582
12.3326
19.2649
43.259
128
128
57.7195
33.3999
21.4634
14.7381
11.1163
9.20671
8.17471
7.45539
7.00366
7.00664
7.20635
7.85831
9.72994
11.5962
12.1898
12.9065
19.8684
44.5061
128
128
50.0792
32.9457
24.7216
19.0481
15.1606
12.4135
10.8338
9.75574
9.11578
9.1232
9.32893
9.88753
11.2072
12.3697
12.8708
13.9913
21.7464
47.9204
128
128
33.9143
28.5935
24.9303
21.2036
18.2483
15.7927
14.1294
12.8104
11.96
11.4911
11.546
11.846
12.5796
13.8896
15.1777
18.1684
28.4208
57.7517
128
128
31.3676
29.0149
27.6804
26.1867
25.0008
23.439
22.6885
21.9328
22.0673
22.5413
23.983
26.1244
30.1755
35.0048
38.79
43.9813
57.0765
87.2669
128
128
128
128
128
128
128
128
128
128
128
128
128
128
128
128
128
128
128
128
128
)
;

boundaryField
{
    movingWall
    {
        Cmu             0.09;
        kappa           0.41;
        E               9.8;
        beta1           0.075;
        blended         false;
        type            omegaWallFunction;
        value           nonuniform List<scalar> 
20
(
128
128
128
128
128
128
128
128
128
128
128
128
128
128
128
128
128
128
128
128
)
;
    }
    fixedWalls
    {
        Cmu             0.09;
        kappa           0.41;
        E               9.8;
        beta1           0.075;
        blended         false;
        type            omegaWallFunction;
        value           nonuniform List<scalar> 
60
(
128
128
128
128
128
128
128
128
128
128
128
128
128
128
128
128
128
128
128
128
128
128
128
128
128
128
128
128
128
128
128
128
128
128
128
128
128
128
128
128
128
128
128
128
128
128
128
128
128
128
128
128
128
128
128
128
128
128
128
128
)
;
    }
    frontAndBack
    {
        type            empty;
    }
}


// ************************************************************************* //
