/*--------------------------------*- C++ -*----------------------------------*\
| =========                 |                                                 |
| \\      /  F ield         | OpenFOAM: The Open Source CFD Toolbox           |
|  \\    /   O peration     | Version:  5.0                                   |
|   \\  /    A nd           | Web:      www.OpenFOAM.org                      |
|    \\/     M anipulation  |                                                 |
\*---------------------------------------------------------------------------*/
FoamFile
{
    version     2.0;
    format      ascii;
    class       volScalarField;
    location    "4";
    object      p;
}
// * * * * * * * * * * * * * * * * * * * * * * * * * * * * * * * * * * * * * //

dimensions      [0 2 -2 0 0 0 0];

internalField   nonuniform List<scalar> 
400
(
6.42309e-08
-4.55075e-05
-9.88345e-05
-0.000251364
-0.000202986
-0.000450892
-0.00128109
-0.00236226
-0.00334352
-0.00408181
-0.00450344
-0.00458636
-0.00425347
-0.00343919
-0.00205298
-4.8145e-05
0.00251768
0.00534663
0.00750744
0.0082145
3.7369e-05
-1.0935e-07
-4.99838e-05
-0.00019014
-0.000563263
-0.00121108
-0.00213072
-0.00308808
-0.00397404
-0.00463078
-0.00500973
-0.00507436
-0.00479308
-0.00411521
-0.00294518
-0.00122463
0.00105543
0.00372093
0.00615812
0.007385
0.000116042
5.38182e-05
-0.000156432
-0.000603159
-0.00132845
-0.00226873
-0.00326863
-0.00422864
-0.00505237
-0.00560656
-0.00589238
-0.00589906
-0.0056139
-0.00503167
-0.00412101
-0.00282279
-0.00106307
0.00115755
0.00363914
0.00519614
0.000179381
1.35807e-05
-0.000472936
-0.00129948
-0.00235404
-0.00346672
-0.00449045
-0.00533469
-0.00594775
-0.00634256
-0.00652339
-0.00648954
-0.0062427
-0.00578105
-0.00509342
-0.00415413
-0.00290022
-0.00122327
0.000876748
0.00241683
-9.61276e-07
-0.000306611
-0.00105642
-0.00219066
-0.00340681
-0.00452127
-0.00543219
-0.0061338
-0.00662554
-0.00693404
-0.00705931
-0.0070067
-0.00678373
-0.00640109
-0.00586719
-0.00517844
-0.00429661
-0.00311649
-0.00163231
-0.000204453
-0.000495091
-0.000903187
-0.00184396
-0.00309252
-0.00431843
-0.00534962
-0.00614354
-0.00675315
-0.00718213
-0.00744619
-0.00753834
-0.00746843
-0.007255
-0.00692323
-0.00649209
-0.00596861
-0.00534113
-0.00453251
-0.0035686
-0.0023774
-0.00124007
-0.00168259
-0.00268983
-0.00391001
-0.00507197
-0.00600551
-0.00672126
-0.00728671
-0.00769327
-0.00793634
-0.00800214
-0.00790414
-0.00768013
-0.00737029
-0.00700078
-0.0065799
-0.00611892
-0.00555606
-0.00498829
-0.00402813
-0.00204232
-0.00246787
-0.00345668
-0.00459886
-0.00568158
-0.00653878
-0.00722017
-0.00778739
-0.00822004
-0.00847953
-0.00853393
-0.00840248
-0.00813643
-0.00780094
-0.00744413
-0.0070711
-0.00670766
-0.00627458
-0.00598268
-0.00520228
-0.00271621
-0.003118
-0.00406322
-0.00513226
-0.00615912
-0.00697716
-0.00767048
-0.00829325
-0.00880855
-0.00912926
-0.00919513
-0.00903063
-0.00868348
-0.00825877
-0.00785013
-0.00746706
-0.00714275
-0.00674256
-0.00664461
-0.00597034
-0.00319284
-0.00356278
-0.00446251
-0.00549334
-0.0065083
-0.00733281
-0.00807888
-0.00879877
-0.00942925
-0.00985142
-0.00996768
-0.0097552
-0.00929709
-0.00872205
-0.00819705
-0.00775353
-0.00744945
-0.00699485
-0.00704374
-0.00639785
-0.00343149
-0.00380706
-0.00465023
-0.00566488
-0.00669342
-0.00756212
-0.00837206
-0.00918397
-0.00990787
-0.0103974
-0.0105393
-0.0103222
-0.0097901
-0.00906227
-0.00839854
-0.00786501
-0.00759744
-0.00700284
-0.00724565
-0.00649665
-0.00343991
-0.00382864
-0.00462128
-0.00561664
-0.00666237
-0.00758253
-0.0084551
-0.00931595
-0.0100841
-0.0106032
-0.0107685
-0.0105561
-0.00999081
-0.00915724
-0.00836864
-0.0077555
-0.00749808
-0.00676935
-0.00725849
-0.00624927
-0.0033169
-0.00369085
-0.00440875
-0.00533095
-0.00638553
-0.00734362
-0.00825343
-0.00913209
-0.00990441
-0.0104299
-0.0106121
-0.0104163
-0.00984278
-0.0089597
-0.00807474
-0.00740789
-0.00710378
-0.0063193
-0.00703954
-0.00562246
-0.00317834
-0.0034699
-0.00405409
-0.00484566
-0.00582777
-0.00680533
-0.00773827
-0.00862089
-0.00938788
-0.00991782
-0.0101151
-0.00993699
-0.00937235
-0.00847242
-0.00753505
-0.00681941
-0.00646065
-0.00571157
-0.00651212
-0.0046335
-0.00309701
-0.0032121
-0.00357844
-0.00419171
-0.00502813
-0.00598438
-0.00693985
-0.00784167
-0.00861912
-0.00916266
-0.009377
-0.00921145
-0.00865344
-0.00775955
-0.00681267
-0.00606634
-0.00566793
-0.00498463
-0.00570625
-0.00332785
-0.00305648
-0.00296597
-0.0030428
-0.00338892
-0.00402896
-0.00490892
-0.00588296
-0.00682687
-0.00764012
-0.0082111
-0.00845215
-0.008311
-0.00778033
-0.00693064
-0.0060242
-0.00528354
-0.00485201
-0.0042045
-0.00465145
-0.00172067
-0.00297836
-0.00279935
-0.0025238
-0.00252459
-0.00293716
-0.00370645
-0.00467236
-0.00565891
-0.00652569
-0.00714726
-0.00744276
-0.00736349
-0.00691431
-0.00616375
-0.00533688
-0.00461282
-0.00410753
-0.00338296
-0.00327813
0.000417154
-0.00282461
-0.00249296
-0.00193627
-0.00163968
-0.00184222
-0.00250801
-0.00347898
-0.00452071
-0.00546727
-0.00617426
-0.00656283
-0.00657749
-0.00624793
-0.00562703
-0.00488477
-0.0041342
-0.00346079
-0.00236296
-0.00106364
0.00458658
-0.00266307
-0.00213378
-0.00142668
-0.000955964
-0.00106717
-0.00168279
-0.0026585
-0.0037495
-0.00476998
-0.00556916
-0.00605894
-0.00618804
-0.00596775
-0.00540975
-0.00468232
-0.00384693
-0.00289575
-0.000583462
0.00426774
0.0158682
-0.00420388
-0.00167016
-0.000780174
-0.000462549
-0.000603478
-0.00121887
-0.00218626
-0.0033279
-0.00439841
-0.00526827
-0.00582076
-0.00602386
-0.00582874
-0.00527041
-0.00437267
-0.00317917
-0.00118312
0.00415451
0.0165799
0.0372698
)
;

boundaryField
{
    movingWall
    {
        type            zeroGradient;
    }
    fixedWalls
    {
        type            zeroGradient;
    }
    frontAndBack
    {
        type            empty;
    }
}


// ************************************************************************* //
