/*--------------------------------*- C++ -*----------------------------------*\
| =========                 |                                                 |
| \\      /  F ield         | OpenFOAM: The Open Source CFD Toolbox           |
|  \\    /   O peration     | Version:  5.0                                   |
|   \\  /    A nd           | Web:      www.OpenFOAM.org                      |
|    \\/     M anipulation  |                                                 |
\*---------------------------------------------------------------------------*/
FoamFile
{
    version     2.0;
    format      ascii;
    class       surfaceScalarField;
    location    "4";
    object      phi;
}
// * * * * * * * * * * * * * * * * * * * * * * * * * * * * * * * * * * * * * //

dimensions      [0 3 -1 0 0 0 0];

internalField   nonuniform List<scalar> 
760
(
1.07106e-07
-1.07112e-07
1.6802e-07
-6.09139e-08
4.72649e-08
1.20754e-07
-4.51939e-07
4.99204e-07
-1.54784e-06
1.09591e-06
-2.92683e-06
1.37899e-06
-4.10094e-06
1.17411e-06
-5.0665e-06
9.6556e-07
-5.77689e-06
7.10389e-07
-6.29946e-06
5.22567e-07
-6.64619e-06
3.46734e-07
-6.8201e-06
1.73908e-07
-6.84599e-06
2.58894e-08
-6.68913e-06
-1.56866e-07
-6.34916e-06
-3.39966e-07
-5.70563e-06
-6.43526e-07
-4.69219e-06
-1.01345e-06
-3.18077e-06
-1.51141e-06
-1.2969e-06
-1.88387e-06
-1.2969e-06
-4.93843e-08
-5.77282e-08
-3.67127e-07
2.56829e-07
-1.22411e-06
9.77741e-07
-2.61987e-06
1.89496e-06
-3.94494e-06
2.42098e-06
-4.78246e-06
2.21651e-06
-5.49616e-06
1.88781e-06
-6.05097e-06
1.52037e-06
-6.4953e-06
1.15472e-06
-6.80135e-06
8.28612e-07
-6.95793e-06
5.03318e-07
-6.99401e-06
2.09979e-07
-6.88531e-06
-8.28098e-08
-6.68473e-06
-3.57446e-07
-6.31755e-06
-7.07142e-07
-5.77507e-06
-1.18601e-06
-4.93115e-06
-1.85736e-06
-3.6664e-06
-2.77616e-06
-1.90129e-06
-3.64898e-06
-3.19819e-06
-3.46508e-07
2.8878e-07
-1.16848e-06
1.0788e-06
-2.4431e-06
2.25237e-06
-3.58477e-06
3.03663e-06
-4.30908e-06
3.14529e-06
-4.83979e-06
2.74722e-06
-5.22695e-06
2.27497e-06
-5.43987e-06
1.7333e-06
-5.53033e-06
1.24517e-06
-5.50649e-06
8.04775e-07
-5.44377e-06
4.40597e-07
-5.35806e-06
1.24271e-07
-5.24171e-06
-1.99156e-07
-5.05938e-06
-5.39781e-07
-4.80723e-06
-9.59289e-07
-4.46649e-06
-1.52675e-06
-3.97108e-06
-2.35277e-06
-3.17756e-06
-3.56968e-06
-1.8758e-06
-4.95075e-06
-5.07399e-06
-6.82911e-07
9.71691e-07
-1.78284e-06
2.17873e-06
-2.86361e-06
3.33313e-06
-3.58533e-06
3.75835e-06
-3.99676e-06
3.55672e-06
-4.18625e-06
2.93671e-06
-4.22555e-06
2.31426e-06
-4.19529e-06
1.70304e-06
-4.15475e-06
1.20463e-06
-4.11304e-06
7.63065e-07
-4.04556e-06
3.73119e-07
-3.94309e-06
2.18039e-08
-3.80679e-06
-3.35461e-07
-3.63082e-06
-7.15749e-07
-3.41569e-06
-1.17441e-06
-3.15787e-06
-1.78457e-06
-2.83835e-06
-2.67229e-06
-2.39023e-06
-4.0178e-06
-1.50529e-06
-5.83569e-06
-6.57928e-06
-8.29481e-07
1.80117e-06
-1.85308e-06
3.20233e-06
-2.59911e-06
4.07917e-06
-3.05112e-06
4.21035e-06
-3.23224e-06
3.73784e-06
-3.26352e-06
2.96799e-06
-3.26306e-06
2.31381e-06
-3.25831e-06
1.69829e-06
-3.24599e-06
1.19231e-06
-3.20909e-06
7.26168e-07
-3.13502e-06
2.99045e-07
-3.01567e-06
-9.75506e-08
-2.85834e-06
-4.92783e-07
-2.6702e-06
-9.03895e-07
-2.45852e-06
-1.38609e-06
-2.23475e-06
-2.00835e-06
-2.02139e-06
-2.88565e-06
-1.78798e-06
-4.25121e-06
-1.17984e-06
-6.44384e-06
-7.75912e-06
-7.75997e-07
2.57717e-06
-1.57706e-06
4.00339e-06
-2.09103e-06
4.59314e-06
-2.39464e-06
4.51395e-06
-2.48517e-06
3.82838e-06
-2.52342e-06
3.00624e-06
-2.55758e-06
2.34797e-06
-2.59981e-06
1.74051e-06
-2.62368e-06
1.21619e-06
-2.60326e-06
7.05749e-07
-2.52361e-06
2.19393e-07
-2.38246e-06
-2.387e-07
-2.19977e-06
-6.7547e-07
-1.9974e-06
-1.10626e-06
-1.78816e-06
-1.59534e-06
-1.57778e-06
-2.21873e-06
-1.38213e-06
-3.0813e-06
-1.18657e-06
-4.44677e-06
-9.07474e-07
-6.72293e-06
-8.66659e-06
-5.98831e-07
3.176e-06
-1.16684e-06
4.5714e-06
-1.54268e-06
4.96898e-06
-1.76295e-06
4.73422e-06
-1.85097e-06
3.9164e-06
-1.93134e-06
3.08661e-06
-2.02621e-06
2.44284e-06
-2.13391e-06
1.84821e-06
-2.21887e-06
1.30115e-06
-2.23446e-06
7.21337e-07
-2.15303e-06
1.37964e-07
-1.98165e-06
-4.10085e-07
-1.76021e-06
-8.96909e-07
-1.5323e-06
-1.33417e-06
-1.32408e-06
-1.80356e-06
-1.13728e-06
-2.40552e-06
-9.86226e-07
-3.23236e-06
-8.52711e-07
-4.58028e-06
-6.86188e-07
-6.88945e-06
-9.35278e-06
-3.78766e-07
3.55477e-06
-7.57425e-07
4.95005e-06
-1.02907e-06
5.24063e-06
-1.19978e-06
4.90492e-06
-1.31473e-06
4.03135e-06
-1.45337e-06
3.22526e-06
-1.62375e-06
2.61321e-06
-1.82065e-06
2.04512e-06
-1.99152e-06
1.47201e-06
-2.06334e-06
7.93156e-07
-1.98108e-06
5.57049e-08
-1.78421e-06
-6.06963e-07
-1.50519e-06
-1.17593e-06
-1.22036e-06
-1.61899e-06
-9.90095e-07
-2.03383e-06
-8.09868e-07
-2.58575e-06
-6.82499e-07
-3.35972e-06
-5.88266e-07
-4.67452e-06
-5.33126e-07
-6.94459e-06
-9.88591e-06
-1.62576e-07
3.71734e-06
-3.70411e-07
5.15789e-06
-5.49925e-07
5.42014e-06
-6.84931e-07
5.03993e-06
-8.39771e-07
4.18619e-06
-1.03459e-06
3.42008e-06
-1.27132e-06
2.84994e-06
-1.53764e-06
2.31144e-06
-1.75652e-06
1.6909e-06
-1.8727e-06
9.09337e-07
-1.83152e-06
1.45238e-08
-1.65487e-06
-7.83617e-07
-1.34984e-06
-1.48095e-06
-1.00308e-06
-1.96576e-06
-7.36204e-07
-2.3007e-06
-5.62206e-07
-2.75975e-06
-4.7569e-07
-3.44624e-06
-4.37227e-07
-4.71298e-06
-4.16247e-07
-6.96557e-06
-1.03022e-05
7.63674e-08
3.64097e-06
-2.04527e-08
5.25471e-06
-1.07307e-07
5.507e-06
-2.17914e-07
5.15054e-06
-3.72765e-07
4.34104e-06
-5.80338e-07
3.62765e-06
-8.14293e-07
3.08389e-06
-1.06042e-06
2.55757e-06
-1.25369e-06
1.88416e-06
-1.36491e-06
1.02056e-06
-1.39657e-06
4.61785e-08
-1.30975e-06
-8.70429e-07
-1.0884e-06
-1.7023e-06
-7.66863e-07
-2.2873e-06
-4.88693e-07
-2.57887e-06
-3.271e-07
-2.92134e-06
-2.81256e-07
-3.49208e-06
-2.87224e-07
-4.70701e-06
-3.39684e-07
-6.91311e-06
-1.06418e-05
2.6552e-07
3.37545e-06
3.69506e-07
5.15072e-06
3.75445e-07
5.50106e-06
3.08199e-07
5.21778e-06
1.73067e-07
4.47618e-06
7.57181e-09
3.79315e-06
-1.77493e-07
3.26896e-06
-3.38593e-07
2.71867e-06
-4.54576e-07
2.00015e-06
-5.34025e-07
1.10001e-06
-6.05251e-07
1.17405e-07
-6.15221e-07
-8.60459e-07
-5.46936e-07
-1.77059e-06
-3.71504e-07
-2.46274e-06
-1.73583e-07
-2.77679e-06
-9.14981e-08
-3.00342e-06
-7.95034e-08
-3.50408e-06
-1.73665e-07
-4.61285e-06
-2.71696e-07
-6.81508e-06
-1.09135e-05
4.62461e-07
2.91299e-06
7.12075e-07
4.90111e-06
8.22996e-07
5.39014e-06
8.37113e-07
5.20367e-06
7.30194e-07
4.5831e-06
6.35172e-07
3.88817e-06
5.66727e-07
3.3374e-06
5.15401e-07
2.77e-06
4.75195e-07
2.04035e-06
4.23606e-07
1.1516e-06
3.41725e-07
1.99285e-07
2.61915e-07
-7.80649e-07
2.08458e-07
-1.71713e-06
2.07513e-07
-2.46179e-06
2.41732e-07
-2.81101e-06
2.08321e-07
-2.97001e-06
1.25406e-07
-3.42116e-06
-7.16354e-08
-4.41581e-06
-2.3525e-07
-6.65147e-06
-1.11488e-05
6.53301e-07
2.25969e-06
1.05071e-06
4.5037e-06
1.2741e-06
5.16675e-06
1.39361e-06
5.08415e-06
1.37098e-06
4.60573e-06
1.3477e-06
3.91145e-06
1.36509e-06
3.32001e-06
1.40534e-06
2.72975e-06
1.42432e-06
2.02138e-06
1.39426e-06
1.18166e-06
1.30743e-06
2.86115e-07
1.17367e-06
-6.46887e-07
1.02041e-06
-1.56387e-06
8.77291e-07
-2.31867e-06
7.4644e-07
-2.68016e-06
5.63572e-07
-2.78715e-06
3.32337e-07
-3.18993e-06
2.29022e-08
-4.10637e-06
-1.59751e-07
-6.46881e-06
-1.13085e-05
7.00672e-07
1.55902e-06
1.27028e-06
3.93409e-06
1.62428e-06
4.81275e-06
1.86222e-06
4.84621e-06
1.96436e-06
4.50359e-06
2.02429e-06
3.85152e-06
2.11102e-06
3.23327e-06
2.21442e-06
2.62635e-06
2.28884e-06
1.94695e-06
2.29799e-06
1.17251e-06
2.23022e-06
3.53893e-07
2.081e-06
-4.97676e-07
1.8644e-06
-1.34727e-06
1.5978e-06
-2.05207e-06
1.30899e-06
-2.39135e-06
9.55821e-07
-2.43397e-06
5.66944e-07
-2.80105e-06
1.74428e-07
-3.71386e-06
-3.81397e-08
-6.25625e-06
-1.13467e-05
6.11341e-07
9.47679e-07
1.37468e-06
3.17076e-06
1.89043e-06
4.29701e-06
2.28077e-06
4.45586e-06
2.55738e-06
4.22698e-06
2.73025e-06
3.67865e-06
2.88471e-06
3.07881e-06
3.03486e-06
2.4762e-06
3.14692e-06
1.8349e-06
3.18191e-06
1.13752e-06
3.12229e-06
4.13514e-07
2.96089e-06
-3.36271e-07
2.69372e-06
-1.0801e-06
2.31406e-06
-1.67241e-06
1.8676e-06
-1.94489e-06
1.35695e-06
-1.92333e-06
8.23109e-07
-2.26721e-06
3.4011e-07
-3.23086e-06
1.00268e-07
-6.0164e-06
-1.12464e-05
3.9328e-07
5.54399e-07
1.19064e-06
2.3734e-06
1.88907e-06
3.59858e-06
2.4674e-06
3.87753e-06
2.94112e-06
3.75325e-06
3.28457e-06
3.3352e-06
3.55306e-06
2.81032e-06
3.77422e-06
2.25504e-06
3.93159e-06
1.67753e-06
4.00097e-06
1.06813e-06
3.96115e-06
4.53338e-07
3.78775e-06
-1.62875e-07
3.45989e-06
-7.5224e-07
2.96417e-06
-1.17669e-06
2.36951e-06
-1.35023e-06
1.73722e-06
-1.29104e-06
1.10579e-06
-1.63578e-06
5.61617e-07
-2.68668e-06
2.79243e-07
-5.73403e-06
-1.09672e-05
1.02334e-07
4.52065e-07
7.74398e-07
1.70133e-06
1.63713e-06
2.73585e-06
2.44148e-06
3.07319e-06
3.1442e-06
3.05053e-06
3.71465e-06
2.76475e-06
4.1517e-06
2.37327e-06
4.48069e-06
1.92605e-06
4.68865e-06
1.46956e-06
4.77139e-06
9.8539e-07
4.70637e-06
5.18359e-07
4.47197e-06
7.15266e-08
4.0485e-06
-3.2877e-07
3.44949e-06
-5.77673e-07
2.7629e-06
-6.63641e-07
2.09234e-06
-6.20484e-07
1.45665e-06
-1.00009e-06
9.15015e-07
-2.14505e-06
6.0073e-07
-5.41974e-06
-1.03664e-05
-4.18674e-07
8.70738e-07
2.3273e-08
1.25939e-06
8.66107e-07
1.89301e-06
1.85885e-06
2.08044e-06
2.7812e-06
2.12819e-06
3.56205e-06
1.98389e-06
4.17707e-06
1.75826e-06
4.64415e-06
1.45897e-06
4.93699e-06
1.17672e-06
5.06397e-06
8.58413e-07
4.99037e-06
5.91955e-07
4.75542e-06
3.06476e-07
4.30599e-06
1.20662e-07
3.75368e-06
-2.53634e-08
3.14881e-06
-5.87654e-08
2.61633e-06
-8.80034e-08
2.08849e-06
-4.72254e-07
1.62968e-06
-1.68623e-06
1.15301e-06
-4.94308e-06
-9.21342e-06
-1.05693e-06
1.92767e-06
-8.11253e-07
1.01371e-06
1.07844e-07
9.73915e-07
1.17225e-06
1.01603e-06
2.22977e-06
1.07067e-06
3.20184e-06
1.01183e-06
4.00123e-06
9.58863e-07
4.63566e-06
8.24538e-07
5.06297e-06
7.49411e-07
5.32202e-06
5.99366e-07
5.37866e-06
5.35312e-07
5.29077e-06
3.94374e-07
5.04716e-06
3.64264e-07
4.7574e-06
2.64396e-07
4.43974e-06
2.58898e-07
4.2284e-06
1.2334e-07
3.95995e-06
-2.03806e-07
3.55239e-06
-1.27867e-06
2.40579e-06
-3.79648e-06
-6.80763e-06
1.92767e-06
2.94138e-06
3.91529e-06
4.93133e-06
6.002e-06
7.01382e-06
7.97269e-06
8.79723e-06
9.54664e-06
1.0146e-05
1.06813e-05
1.10757e-05
1.144e-05
1.17043e-05
1.19632e-05
1.20866e-05
1.18828e-05
1.06041e-05
6.80763e-06
)
;

boundaryField
{
    movingWall
    {
        type            calculated;
        value           uniform 0;
    }
    fixedWalls
    {
        type            calculated;
        value           uniform 0;
    }
    frontAndBack
    {
        type            empty;
        value           nonuniform 0();
    }
}


// ************************************************************************* //
