/*--------------------------------*- C++ -*----------------------------------*\
| =========                 |                                                 |
| \\      /  F ield         | OpenFOAM: The Open Source CFD Toolbox           |
|  \\    /   O peration     | Version:  5.0                                   |
|   \\  /    A nd           | Web:      www.OpenFOAM.org                      |
|    \\/     M anipulation  |                                                 |
\*---------------------------------------------------------------------------*/
FoamFile
{
    version     2.0;
    format      ascii;
    class       volVectorField;
    location    "4";
    object      U;
}
// * * * * * * * * * * * * * * * * * * * * * * * * * * * * * * * * * * * * * //

dimensions      [0 1 -1 0 0 0 0];

internalField   nonuniform List<vector> 
400
(
(0.00114023 -0.00140633 0)
(0.002914 -0.00164437 0)
(0.00429802 -0.00131087 0)
(-0.00292029 0.000213589 0)
(-0.0131857 0.00643994 0)
(-0.0459848 0.0155541 0)
(-0.0748019 0.0118429 0)
(-0.0938841 0.0107146 0)
(-0.111655 0.00860201 0)
(-0.121468 0.006771 0)
(-0.131113 0.00541339 0)
(-0.135593 0.00336656 0)
(-0.137906 0.00251936 0)
(-0.137603 -0.000494396 0)
(-0.131335 -0.00215592 0)
(-0.121069 -0.00633558 0)
(-0.102717 -0.0101055 0)
(-0.0768465 -0.0147213 0)
(-0.0440141 -0.0162319 0)
(-0.0119793 -0.00438132 0)
(0.000302388 -0.00285869 0)
(-0.00239915 -0.000595146 0)
(-0.0116667 0.00680933 0)
(-0.0356676 0.0219164 0)
(-0.068059 0.0384801 0)
(-0.0892791 0.0363252 0)
(-0.105838 0.0317125 0)
(-0.116403 0.0257271 0)
(-0.127875 0.0183784 0)
(-0.13326 0.0131518 0)
(-0.139098 0.00761366 0)
(-0.140137 0.00297646 0)
(-0.140748 -0.00182983 0)
(-0.136974 -0.00691589 0)
(-0.131916 -0.0133891 0)
(-0.121192 -0.0223669 0)
(-0.106647 -0.0341899 0)
(-0.0840008 -0.0499309 0)
(-0.0548871 -0.0613761 0)
(-0.0207213 -0.0440716 0)
(-0.00154612 0.000783448 0)
(-0.0116073 0.0115383 0)
(-0.0338807 0.0332706 0)
(-0.0628091 0.0516593 0)
(-0.0817916 0.0560449 0)
(-0.093236 0.0501795 0)
(-0.102393 0.0414705 0)
(-0.108159 0.0321753 0)
(-0.111148 0.0245268 0)
(-0.110137 0.0170417 0)
(-0.110122 0.0102165 0)
(-0.107812 0.00395282 0)
(-0.106489 -0.00234256 0)
(-0.103721 -0.0089729 0)
(-0.099812 -0.0172926 0)
(-0.0939301 -0.0287716 0)
(-0.0849352 -0.0454933 0)
(-0.0708889 -0.0683795 0)
(-0.0481741 -0.0921491 0)
(-0.0223702 -0.0902031 0)
(-0.00400686 0.0118431 0)
(-0.0219675 0.0333677 0)
(-0.0485741 0.057691 0)
(-0.0674469 0.0683242 0)
(-0.0787576 0.0665365 0)
(-0.0835947 0.0566317 0)
(-0.0854053 0.0463653 0)
(-0.0844522 0.0349799 0)
(-0.0832102 0.0248672 0)
(-0.0828303 0.0160132 0)
(-0.0816182 0.00834705 0)
(-0.0800741 0.00158067 0)
(-0.0776688 -0.00507937 0)
(-0.074693 -0.0122154 0)
(-0.0709042 -0.0209684 0)
(-0.0665934 -0.0328719 0)
(-0.0612196 -0.0505934 0)
(-0.0525949 -0.0780743 0)
(-0.0372596 -0.111146 0)
(-0.0183081 -0.119815 0)
(-0.00520115 0.0279216 0)
(-0.0265869 0.0541158 0)
(-0.0481115 0.0745427 0)
(-0.0588047 0.0793727 0)
(-0.0658299 0.0730169 0)
(-0.0652993 0.05951 0)
(-0.065579 0.0469379 0)
(-0.0650005 0.034451 0)
(-0.0650057 0.024268 0)
(-0.0647456 0.0151106 0)
(-0.0635022 0.00690005 0)
(-0.061699 -0.000640361 0)
(-0.058816 -0.00815475 0)
(-0.055412 -0.0160964 0)
(-0.0514434 -0.0254845 0)
(-0.047328 -0.0376823 0)
(-0.0431865 -0.0550988 0)
(-0.0379611 -0.0823463 0)
(-0.0307193 -0.125889 0)
(-0.0113413 -0.147102 0)
(-0.00443054 0.0432307 0)
(-0.0253638 0.0723298 0)
(-0.0397344 0.0866363 0)
(-0.046957 0.0872609 0)
(-0.0510247 0.0758953 0)
(-0.0493388 0.0600707 0)
(-0.0509223 0.0468016 0)
(-0.0514231 0.0344758 0)
(-0.0524118 0.0241712 0)
(-0.0525222 0.0144611 0)
(-0.0513953 0.00537695 0)
(-0.0492004 -0.00308071 0)
(-0.0458372 -0.0113227 0)
(-0.0419773 -0.019828 0)
(-0.03786 -0.0296443 0)
(-0.033799 -0.0421015 0)
(-0.0300224 -0.0593597 0)
(-0.0250591 -0.0863872 0)
(-0.0231503 -0.13098 0)
(-0.00849576 -0.164724 0)
(-0.00297017 0.0573809 0)
(-0.0199096 0.0852678 0)
(-0.0291894 0.0949837 0)
(-0.0350198 0.0922418 0)
(-0.0374305 0.0774247 0)
(-0.03674 0.0609544 0)
(-0.0397327 0.0478459 0)
(-0.0415915 0.0358024 0)
(-0.043922 0.0251528 0)
(-0.0449143 0.0144353 0)
(-0.0440352 0.00385247 0)
(-0.0414263 -0.00595123 0)
(-0.03736 -0.0150936 0)
(-0.0328042 -0.0239422 0)
(-0.0284199 -0.0337547 0)
(-0.0244696 -0.0461465 0)
(-0.0215317 -0.0631239 0)
(-0.0171587 -0.0903224 0)
(-0.0190104 -0.136633 0)
(-0.00445912 -0.180999 0)
(-0.000635183 0.0669753 0)
(-0.013581 0.0954084 0)
(-0.0189355 0.102276 0)
(-0.024042 0.0964839 0)
(-0.0255596 0.079442 0)
(-0.0265449 0.0629229 0)
(-0.0308912 0.0502253 0)
(-0.0345912 0.0385057 0)
(-0.0389036 0.0273358 0)
(-0.0411563 0.0149096 0)
(-0.0406269 0.0019865 0)
(-0.0376662 -0.00993835 0)
(-0.0327285 -0.0202957 0)
(-0.0269847 -0.0291072 0)
(-0.021837 -0.038202 0)
(-0.0175763 -0.0498932 0)
(-0.0153864 -0.0658539 0)
(-0.0107378 -0.0922386 0)
(-0.0150603 -0.137793 0)
(-0.00289967 -0.191573 0)
(0.000949526 0.0736577 0)
(-0.00680041 0.101071 0)
(-0.00967871 0.106072 0)
(-0.0135225 0.0988893 0)
(-0.0151612 0.0814695 0)
(-0.0176499 0.0658559 0)
(-0.023107 0.0539179 0)
(-0.0285307 0.0426273 0)
(-0.0341818 0.030643 0)
(-0.0368873 0.0161028 0)
(-0.0372849 0.000211098 0)
(-0.0348449 -0.0150031 0)
(-0.029819 -0.0274043 0)
(-0.0231589 -0.0361713 0)
(-0.017063 -0.0435027 0)
(-0.012152 -0.0537082 0)
(-0.0111248 -0.0682959 0)
(-0.00640191 -0.0943277 0)
(-0.0134722 -0.13929 0)
(-0.000224873 -0.202187 0)
(0.00392712 0.074203 0)
(-0.000388536 0.104816 0)
(-0.000828865 0.110008 0)
(-0.00399391 0.101959 0)
(-0.00552842 0.0850303 0)
(-0.00863963 0.0699645 0)
(-0.0140407 0.0587471 0)
(-0.0194235 0.0480211 0)
(-0.0242897 0.0349726 0)
(-0.0269316 0.0184398 0)
(-0.0275788 0.00017283 0)
(-0.0270295 -0.0181773 0)
(-0.0236989 -0.0337425 0)
(-0.0183221 -0.0439807 0)
(-0.0123807 -0.0494908 0)
(-0.00677248 -0.0572748 0)
(-0.00741795 -0.0697869 0)
(-0.00215991 -0.0944542 0)
(-0.0117305 -0.138644 0)
(0.000984518 -0.209155 0)
(0.00571098 0.0714454 0)
(0.00558366 0.10457 0)
(0.00779607 0.110336 0)
(0.00626587 0.103342 0)
(0.00512417 0.0876287 0)
(0.002307 0.0739097 0)
(-0.00191258 0.0632542 0)
(-0.00571146 0.0525424 0)
(-0.00870495 0.0386052 0)
(-0.0102734 0.0209324 0)
(-0.0113854 0.00145449 0)
(-0.0120833 -0.0181625 0)
(-0.0114144 -0.0361593 0)
(-0.00896951 -0.0488636 0)
(-0.00563357 -0.0546151 0)
(-0.000773114 -0.0599266 0)
(-0.0038443 -0.0706533 0)
(0.00195307 -0.0936797 0)
(-0.011302 -0.137571 0)
(0.00339502 -0.216519 0)
(0.00746989 0.0650216 0)
(0.0114945 0.102695 0)
(0.0154905 0.110459 0)
(0.0162106 0.105467 0)
(0.0158356 0.0909559 0)
(0.0140355 0.0770797 0)
(0.0116628 0.0664437 0)
(0.010143 0.0554572 0)
(0.00933858 0.0409668 0)
(0.00883813 0.0228597 0)
(0.0077464 0.00315773 0)
(0.006358 -0.0166061 0)
(0.00481707 -0.0352679 0)
(0.00465742 -0.0500357 0)
(0.00424265 -0.0565971 0)
(0.0062105 -0.0604621 0)
(0.000390566 -0.0698088 0)
(0.00657666 -0.0905392 0)
(-0.0113674 -0.135297 0)
(0.00529153 -0.220812 0)
(0.00953661 0.0533645 0)
(0.0167178 0.0951545 0)
(0.0239703 0.105991 0)
(0.0261497 0.103255 0)
(0.0276588 0.0923652 0)
(0.0272042 0.0782729 0)
(0.0265626 0.0670497 0)
(0.0269341 0.0557352 0)
(0.0277199 0.0414164 0)
(0.0280874 0.0239699 0)
(0.0272114 0.0051124 0)
(0.0254902 -0.013975 0)
(0.0228118 -0.0327133 0)
(0.0203404 -0.0479493 0)
(0.016244 -0.0551908 0)
(0.014343 -0.0580553 0)
(0.00545713 -0.0665332 0)
(0.0111847 -0.085461 0)
(-0.0120279 -0.131821 0)
(0.008944 -0.225023 0)
(0.00851918 0.0382751 0)
(0.0201828 0.0871189 0)
(0.029458 0.102217 0)
(0.0347175 0.101041 0)
(0.0378235 0.0929559 0)
(0.0396215 0.0789957 0)
(0.0407684 0.06659 0)
(0.0425174 0.0545023 0)
(0.044423 0.0406078 0)
(0.0458234 0.0243421 0)
(0.0455761 0.00690776 0)
(0.044075 -0.0109623 0)
(0.0408243 -0.0286574 0)
(0.0367399 -0.0434744 0)
(0.029223 -0.0507227 0)
(0.0236334 -0.0523296 0)
(0.011328 -0.0601318 0)
(0.0155712 -0.0783609 0)
(-0.0122973 -0.127012 0)
(0.0130036 -0.226418 0)
(0.00366526 0.0236615 0)
(0.0220988 0.070868 0)
(0.0330564 0.0916349 0)
(0.0419522 0.0941022 0)
(0.0478765 0.0885384 0)
(0.0523702 0.0762084 0)
(0.0555094 0.063556 0)
(0.0584857 0.0512363 0)
(0.0612109 0.0379204 0)
(0.0633066 0.0231452 0)
(0.0634407 0.00765725 0)
(0.0620887 -0.00817532 0)
(0.0583173 -0.0238599 0)
(0.0527769 -0.0368887 0)
(0.0419812 -0.0432003 0)
(0.0332196 -0.0434853 0)
(0.0175317 -0.0507992 0)
(0.0200323 -0.0697013 0)
(-0.0117136 -0.123214 0)
(0.0189937 -0.227712 0)
(-5.59018e-05 0.0134316 0)
(0.0170987 0.055652 0)
(0.0320349 0.0815008 0)
(0.0440985 0.086162 0)
(0.0537546 0.0827682 0)
(0.0616197 0.0733109 0)
(0.0675878 0.0616716 0)
(0.0725971 0.0495633 0)
(0.0764684 0.0369811 0)
(0.0794369 0.0236108 0)
(0.0801198 0.00968557 0)
(0.0791295 -0.00433349 0)
(0.0745897 -0.0176591 0)
(0.0672329 -0.0280476 0)
(0.0533508 -0.0328222 0)
(0.0419296 -0.0321191 0)
(0.0239876 -0.0391941 0)
(0.0248618 -0.0596771 0)
(-0.00910282 -0.118884 0)
(0.0260966 -0.227401 0)
(-0.00359747 0.00841185 0)
(0.00796505 0.0366858 0)
(0.0252844 0.0611358 0)
(0.0417213 0.069533 0)
(0.0554909 0.0690416 0)
(0.0679622 0.0624318 0)
(0.0777894 0.0532734 0)
(0.0857311 0.0430444 0)
(0.0912887 0.0323219 0)
(0.094887 0.0209867 0)
(0.0955209 0.00971475 0)
(0.0936626 -0.00133985 0)
(0.0873222 -0.0109204 0)
(0.0777645 -0.0175543 0)
(0.061851 -0.0200985 0)
(0.0490604 -0.0190281 0)
(0.0311607 -0.0263536 0)
(0.0311716 -0.0493293 0)
(-0.0027836 -0.115937 0)
(0.0359508 -0.226847 0)
(-0.00921957 0.0104364 0)
(-0.00676614 0.0330745 0)
(0.00812684 0.0507203 0)
(0.0281506 0.0561383 0)
(0.0463984 0.0565545 0)
(0.0627504 0.0519458 0)
(0.0765496 0.0450444 0)
(0.0878557 0.0368977 0)
(0.0954729 0.028758 0)
(0.10064 0.0201974 0)
(0.101396 0.0123186 0)
(0.0994189 0.00472533 0)
(0.0921655 -0.00129379 0)
(0.0826606 -0.00495328 0)
(0.0683299 -0.00631042 0)
(0.0577448 -0.00554398 0)
(0.0429543 -0.0137268 0)
(0.0428167 -0.0398539 0)
(0.0116726 -0.114142 0)
(0.0492594 -0.217737 0)
(-0.0171458 0.0293058 0)
(-0.0229847 0.016234 0)
(-0.00737211 0.0223336 0)
(0.0124947 0.025963 0)
(0.0336102 0.0274128 0)
(0.0540255 0.0262017 0)
(0.071334 0.0240688 0)
(0.0863175 0.0204549 0)
(0.096867 0.0173402 0)
(0.104279 0.0131797 0)
(0.107941 0.0103109 0)
(0.107772 0.00658177 0)
(0.10418 0.00536289 0)
(0.0997038 0.00362388 0)
(0.0907014 0.00338608 0)
(0.0856872 0.00109203 0)
(0.076057 -0.00818945 0)
(0.075774 -0.0348538 0)
(0.0509956 -0.10089 0)
(0.0741832 -0.172133 0)
(0.0418761 0.0383422 0)
(0.0462029 0.0270413 0)
(0.0652608 0.0201169 0)
(0.0900152 0.0167959 0)
(0.107827 0.0167984 0)
(0.130572 0.0152666 0)
(0.147316 0.0154133 0)
(0.167952 0.0133619 0)
(0.181578 0.01339 0)
(0.197767 0.0111906 0)
(0.207475 0.0112983 0)
(0.219114 0.00921981 0)
(0.225315 0.0097208 0)
(0.232446 0.00770506 0)
(0.236027 0.00840668 0)
(0.239424 0.00524587 0)
(0.237357 0.00299587 0)
(0.226543 -0.00415298 0)
(0.189546 -0.0153958 0)
(0.14176 -0.0362871 0)
)
;

boundaryField
{
    movingWall
    {
        type            fixedValue;
        value           uniform (1 0 0);
    }
    fixedWalls
    {
        type            noSlip;
    }
    frontAndBack
    {
        type            empty;
    }
}


// ************************************************************************* //
