/*--------------------------------*- C++ -*----------------------------------*\
  =========                 |
  \\      /  F ield         | OpenFOAM: The Open Source CFD Toolbox
   \\    /   O peration     | Website:  https://openfoam.org
    \\  /    A nd           | Version:  6
     \\/     M anipulation  |
\*---------------------------------------------------------------------------*/
FoamFile
{
    version     2.0;
    format      ascii;
    class       volScalarField;
    location    "0.2";
    object      p;
}
// * * * * * * * * * * * * * * * * * * * * * * * * * * * * * * * * * * * * * //

dimensions      [0 2 -2 0 0 0 0];

internalField   nonuniform List<scalar> 
400
(
-5.15241e-06
-0.00288433
-0.00826953
-0.0144935
-0.0195651
-0.0216303
-0.0191078
-0.010853
0.00362273
0.0238391
0.00285218
-4.89324e-05
-0.00431873
-0.00896812
-0.0126845
-0.0140061
-0.0115827
-0.00438013
0.00809712
0.0255064
0.00833213
0.00413461
-0.00030021
-0.00438667
-0.00742266
-0.00831421
-0.00597289
0.000465759
0.0114446
0.0267059
0.0150923
0.00886395
0.00332123
-0.00108471
-0.00412606
-0.00498365
-0.00278365
0.0031712
0.0132462
0.0272223
0.0215443
0.0130193
0.00590367
0.000699257
-0.00273346
-0.00377992
-0.00172714
0.00398037
0.0136305
0.0270205
0.0260881
0.0151486
0.00619148
-9.32624e-05
-0.00411816
-0.00541428
-0.00337949
0.00243013
0.0122329
0.0258293
0.0269241
0.013446
0.00246407
-0.00504401
-0.00969815
-0.0111298
-0.00880521
-0.00236208
0.00836184
0.0231668
0.0217493
0.00551864
-0.00764126
-0.0163793
-0.0214974
-0.0227098
-0.0195315
-0.0116658
0.00100607
0.0182964
0.00728287
-0.012061
-0.0275478
-0.0373512
-0.0424765
-0.0427501
-0.0377628
-0.0273038
-0.0112977
0.0101141
-0.0215041
-0.0445456
-0.0624686
-0.0728449
-0.0769931
-0.0749754
-0.0665786
-0.0517693
-0.0305383
-0.00290826
0.04697
0.0677776
0.0829689
0.091695
0.0943174
0.092064
0.0866979
0.0802422
0.0747812
0.071958
0.0454477
0.0633603
0.0764439
0.0840483
0.0865651
0.0850988
0.0811478
0.0763101
0.0719814
0.0691488
0.0442058
0.0599533
0.0715214
0.0783573
0.0807991
0.0797719
0.0765026
0.0722194
0.0677228
0.0636162
0.0432901
0.0578205
0.0685811
0.0750168
0.0773597
0.07636
0.073041
0.0683809
0.0627397
0.0566068
0.0424841
0.0565854
0.067144
0.0735304
0.0758406
0.0746668
0.0708925
0.0653349
0.0580376
0.0495733
0.0416162
0.0561974
0.0673071
0.0741691
0.0767069
0.0753646
0.0709379
0.0641595
0.0548701
0.0438843
0.0404418
0.0566759
0.0693718
0.0775229
0.0808277
0.0795727
0.0745012
0.0663216
0.0547565
0.0409956
0.0385368
0.0579609
0.073689
0.0843832
0.0894274
0.0888973
0.0834771
0.0738761
0.0597389
0.0427717
0.0352027
0.0598511
0.0806595
0.0958345
0.104292
0.105755
0.100758
0.0899649
0.0729266
0.0520566
0.0294123
0.0619623
0.0907411
0.113371
0.12806
0.133888
0.130981
0.119763
0.0995525
0.0737292
-0.0707387
-0.0983245
-0.118518
-0.128243
-0.129465
-0.122781
-0.108449
-0.0868102
-0.0579746
-0.0217286
-0.143854
-0.17698
-0.198581
-0.205098
-0.199952
-0.184921
-0.16123
-0.129893
-0.0912053
-0.0445464
-0.243735
-0.283467
-0.304147
-0.302504
-0.285243
-0.256539
-0.219259
-0.175351
-0.125229
-0.0675667
-0.379487
-0.426417
-0.440368
-0.421199
-0.382579
-0.332787
-0.276874
-0.217644
-0.15522
-0.0870441
-0.570329
-0.620933
-0.613756
-0.560037
-0.486335
-0.406319
-0.326839
-0.250601
-0.1764
-0.0996473
-0.856864
-0.891526
-0.830113
-0.713556
-0.58679
-0.467322
-0.361239
-0.268693
-0.185352
-0.10361
-1.32
-1.27202
-1.09003
-0.870039
-0.670224
-0.504762
-0.373149
-0.268537
-0.181079
-0.0993612
-2.13993
-1.79918
-1.36962
-0.998982
-0.712763
-0.504096
-0.355903
-0.248438
-0.164462
-0.08896
-3.77501
-2.47515
-1.54652
-1.00358
-0.65879
-0.438648
-0.298876
-0.205483
-0.136008
-0.0744265
-6.53312
-3.07667
-1.42451
-0.793376
-0.482282
-0.309213
-0.209941
-0.14739
-0.101359
-0.058987
0.0204428
0.0639448
0.104271
0.138412
0.16358
0.177747
0.180109
0.170383
0.14721
0.115104
0.00917681
0.0657646
0.120654
0.170431
0.211166
0.23919
0.25196
0.247532
0.222793
0.183228
-0.00218426
0.0678686
0.138776
0.207345
0.268786
0.317493
0.348242
0.355808
0.333039
0.285362
-0.0112106
0.0712105
0.158129
0.24756
0.334717
0.412398
0.472067
0.503152
0.490218
0.435091
-0.0160108
0.076114
0.177273
0.287883
0.404752
0.520611
0.624273
0.698373
0.712892
0.656653
-0.0161799
0.0815423
0.193282
0.322991
0.47127
0.633977
0.800584
0.94862
1.0282
0.996306
-0.0131053
0.0850395
0.201897
0.345675
0.523249
0.738637
0.988889
1.25409
1.47047
1.54004
-0.00952128
0.0829382
0.19733
0.345722
0.542984
0.807411
1.15487
1.58759
2.07608
2.47313
-0.00838601
0.0709489
0.17226
0.308571
0.500055
0.780251
1.19615
1.82186
2.84573
4.25324
-0.0104419
0.0508057
0.130751
0.239089
0.39317
0.629036
1.01789
1.75236
3.52707
7.10588
)
;

boundaryField
{
    movingWall
    {
        type            zeroGradient;
    }
    fixedWalls
    {
        type            zeroGradient;
    }
    frontAndBack
    {
        type            empty;
    }
}


// ************************************************************************* //
