/*--------------------------------*- C++ -*----------------------------------*\
  =========                 |
  \\      /  F ield         | OpenFOAM: The Open Source CFD Toolbox
   \\    /   O peration     | Website:  https://openfoam.org
    \\  /    A nd           | Version:  6
     \\/     M anipulation  |
\*---------------------------------------------------------------------------*/
FoamFile
{
    version     2.0;
    format      ascii;
    class       surfaceScalarField;
    location    "0.2";
    object      phi;
}
// * * * * * * * * * * * * * * * * * * * * * * * * * * * * * * * * * * * * * //

dimensions      [0 3 -1 0 0 0 0];

internalField   nonuniform List<scalar> 
760
(
6.58285e-09
-6.56223e-09
4.25844e-09
2.32439e-09
-1.64217e-08
2.06802e-08
-5.77041e-08
4.12826e-08
-1.17709e-07
6.00047e-08
-1.91301e-07
7.35921e-08
-2.70399e-07
7.90976e-08
-3.44254e-07
7.38554e-08
-3.99868e-07
5.56141e-08
2.30207e-08
-4.22888e-07
-1.90276e-09
-4.65961e-09
-3.21234e-08
3.25448e-08
-1.06732e-07
9.52885e-08
-2.32083e-07
1.66634e-07
-4.05332e-07
2.33254e-07
-6.1437e-07
2.8263e-07
-8.37968e-07
3.02695e-07
-1.04643e-06
2.82319e-07
-1.20306e-06
2.12243e-07
8.71781e-08
-1.26722e-06
-1.98995e-08
1.52396e-08
-9.5219e-08
1.07864e-07
-2.41398e-07
2.41467e-07
-4.65262e-07
3.90498e-07
-7.61905e-07
5.29898e-07
-1.11265e-06
6.33375e-07
-1.48408e-06
6.74129e-07
-1.82853e-06
6.26767e-07
-2.08637e-06
4.7008e-07
1.92167e-07
-2.19136e-06
-4.19844e-08
5.72236e-08
-1.74819e-07
2.40697e-07
-4.10049e-07
4.76697e-07
-7.51187e-07
7.31635e-07
-1.18847e-06
9.67186e-07
-1.69511e-06
1.14001e-06
-2.22498e-06
1.204e-06
-2.71262e-06
1.11441e-06
-3.076e-06
8.33461e-07
3.39917e-07
-3.22375e-06
-6.68653e-08
1.24089e-07
-2.67976e-07
4.41807e-07
-6.10086e-07
8.18807e-07
-1.09058e-06
1.21212e-06
-1.69162e-06
1.56823e-06
-2.37551e-06
1.8239e-06
-3.08162e-06
1.91011e-06
-3.72586e-06
1.75865e-06
-4.2038e-06
1.3114e-06
5.35121e-07
-4.399e-06
-9.49997e-08
2.19088e-07
-3.76012e-07
7.22818e-07
-8.45029e-07
1.28782e-06
-1.49114e-06
1.85824e-06
-2.28508e-06
2.36216e-06
-3.17464e-06
2.71346e-06
-4.08176e-06
2.81723e-06
-4.90216e-06
2.57905e-06
-5.50853e-06
1.91777e-06
7.85865e-07
-5.75928e-06
-1.27964e-07
3.47052e-07
-5.03864e-07
1.09872e-06
-1.12455e-06
1.9085e-06
-1.96839e-06
2.70208e-06
-2.99075e-06
3.38452e-06
-4.12058e-06
3.84329e-06
-5.25885e-06
3.9555e-06
-6.27918e-06
3.59938e-06
-7.03142e-06
2.67001e-06
1.1038e-06
-7.34935e-06
-1.68398e-07
5.1545e-07
-6.6017e-07
1.59049e-06
-1.46489e-06
2.71323e-06
-2.54604e-06
3.78322e-06
-3.83805e-06
4.67653e-06
-5.24556e-06
5.25081e-06
-6.64483e-06
5.35477e-06
-7.88678e-06
4.84132e-06
-8.8008e-06
3.58403e-06
1.50266e-06
-9.19966e-06
-2.20227e-07
7.35676e-07
-8.5789e-07
2.22815e-06
-1.88953e-06
3.74486e-06
-3.25522e-06
5.14891e-06
-4.85928e-06
6.2806e-06
-6.57474e-06
6.96626e-06
-8.25036e-06
7.03039e-06
-9.71767e-06
6.30864e-06
-1.07947e-05
4.66108e-06
1.99274e-06
-1.12848e-05
-2.89567e-07
1.02524e-06
-1.11672e-06
3.05531e-06
-2.43123e-06
5.05937e-06
-4.13211e-06
6.84979e-06
-6.07713e-06
8.22563e-06
-8.09799e-06
8.98712e-06
-1.00171e-05
8.94949e-06
-1.16599e-05
7.95147e-06
-1.28569e-05
5.85802e-06
-1.343e-05
2.56586e-06
-4.03096e-07
-1.97926e-08
-3.48634e-07
-5.44618e-08
-2.73786e-07
-7.4849e-08
-1.92584e-07
-8.12025e-08
-1.17012e-07
-7.55718e-08
-5.59536e-08
-6.10587e-08
-1.46956e-08
-4.12582e-08
5.26403e-09
-1.99598e-08
6.82204e-09
-1.55816e-09
6.82195e-09
-1.21059e-06
-7.6416e-08
-1.05675e-06
-2.08308e-07
-8.4613e-07
-2.8547e-07
-6.17778e-07
-3.09555e-07
-4.04181e-07
-2.89169e-07
-2.28374e-07
-2.36866e-07
-1.02831e-07
-1.66802e-07
-2.9613e-08
-9.31781e-08
-1.0749e-09
-3.00964e-08
5.74702e-09
-2.09771e-06
-1.70058e-07
-1.84429e-06
-4.61736e-07
-1.49695e-06
-6.32807e-07
-1.11863e-06
-6.87871e-07
-7.61048e-07
-6.46756e-07
-4.60304e-07
-5.3761e-07
-2.35769e-07
-3.91337e-07
-9.13841e-08
-2.37563e-07
-1.8542e-08
-1.02939e-07
-1.27949e-08
-3.09255e-06
-3.01259e-07
-2.73622e-06
-8.18065e-07
-2.24542e-06
-1.12361e-06
-1.70638e-06
-1.22691e-06
-1.18997e-06
-1.16316e-06
-7.46199e-07
-9.81384e-07
-4.0319e-07
-7.34345e-07
-1.69752e-07
-4.71002e-07
-4.00841e-08
-2.32607e-07
-5.28789e-08
-4.22987e-06
-4.70388e-07
-3.76453e-06
-1.2834e-06
-3.11789e-06
-1.77025e-06
-2.39964e-06
-1.94517e-06
-1.70122e-06
-1.86158e-06
-1.08912e-06
-1.59348e-06
-6.03693e-07
-1.21977e-06
-2.62185e-07
-8.12509e-07
-6.44452e-08
-4.30347e-07
-1.17324e-07
-5.55311e-06
-6.7656e-07
-4.97102e-06
-1.86549e-06
-4.15143e-06
-2.58984e-06
-3.22817e-06
-2.86843e-06
-2.31593e-06
-2.77383e-06
-1.50201e-06
-2.40739e-06
-8.43854e-07
-1.87793e-06
-3.71347e-07
-1.28502e-06
-9.23996e-08
-7.09294e-07
-2.09723e-07
-7.11036e-06
-9.15556e-07
-6.40541e-06
-2.57044e-06
-5.39429e-06
-3.60096e-06
-4.23508e-06
-4.02764e-06
-3.06904e-06
-3.93986e-06
-2.0101e-06
-3.46633e-06
-1.13938e-06
-2.74866e-06
-5.05022e-07
-1.91937e-06
-1.2627e-07
-1.08805e-06
-3.35993e-07
-8.93904e-06
-1.17618e-06
-8.11405e-06
-3.39542e-06
-6.89975e-06
-4.81526e-06
-5.47539e-06
-5.45201e-06
-4.01087e-06
-5.40438e-06
-2.65345e-06
-4.82375e-06
-1.51711e-06
-3.88499e-06
-6.77042e-07
-2.75944e-06
-1.70114e-07
-1.59497e-06
-5.06106e-07
-1.10263e-05
-1.43468e-06
-1.01076e-05
-4.31414e-06
-8.70391e-06
-6.21893e-06
-7.00409e-06
-7.15183e-06
-5.20326e-06
-7.20522e-06
-3.48788e-06
-6.53913e-06
-2.0174e-06
-5.35547e-06
-9.09037e-07
-3.86781e-06
-2.30325e-07
-2.27368e-06
-7.36431e-07
-1.32169e-05
-1.64775e-06
-1.22807e-05
-5.25034e-06
-1.07649e-05
-7.73478e-06
-8.83767e-06
-9.07901e-06
-6.70141e-06
-9.34147e-06
-4.58094e-06
-8.6596e-06
-2.69681e-06
-7.23961e-06
-1.23388e-06
-5.33074e-06
-3.17022e-07
-3.19054e-06
-1.05345e-06
-3.56704e-07
1.38195e-06
-1.3525e-06
4.0511e-06
-2.88804e-06
6.59491e-06
-4.7994e-06
8.76115e-06
-6.88704e-06
1.03133e-05
-8.94897e-06
1.10491e-05
-1.08091e-05
1.08097e-05
-1.23323e-05
9.4746e-06
-1.3418e-05
6.94372e-06
3.11782e-06
-1.39699e-05
-4.13349e-07
1.7953e-06
-1.52393e-06
5.16168e-06
-3.15183e-06
8.22281e-06
-5.04876e-06
1.06581e-05
-6.96071e-06
1.22252e-05
-8.68074e-06
1.27691e-05
-1.00807e-05
1.22097e-05
-1.11171e-05
1.05109e-05
-1.1809e-05
7.63563e-06
3.4994e-06
-1.21905e-05
-4.94113e-07
2.28941e-06
-1.73981e-06
6.40739e-06
-3.41764e-06
9.90064e-06
-5.16431e-06
1.24048e-05
-6.68228e-06
1.37432e-05
-7.79941e-06
1.38862e-05
-8.48212e-06
1.28924e-05
-8.81364e-06
1.08424e-05
-8.95028e-06
7.77228e-06
3.61233e-06
-9.0632e-06
-6.23862e-07
2.91327e-06
-2.03448e-06
7.81801e-06
-3.67965e-06
1.15458e-05
-5.06863e-06
1.37937e-05
-5.914e-06
1.45886e-05
-6.15112e-06
1.41233e-05
-5.89485e-06
1.26361e-05
-5.37339e-06
1.0321e-05
-4.8658e-06
7.26469e-06
3.39783e-06
-4.65131e-06
-8.43021e-07
3.75629e-06
-2.42827e-06
9.40326e-06
-3.85303e-06
1.29705e-05
-4.5613e-06
1.4502e-05
-4.40297e-06
1.44302e-05
-3.51891e-06
1.32393e-05
-2.20707e-06
1.13243e-05
-8.17793e-07
8.93169e-06
3.0342e-07
6.14348e-06
2.86768e-06
8.33566e-07
-1.19934e-06
4.95564e-06
-2.85712e-06
1.1061e-05
-3.66437e-06
1.37778e-05
-3.23409e-06
1.40717e-05
-1.75448e-06
1.29506e-05
3.56768e-07
1.1128e-05
2.65117e-06
9.02987e-06
4.73984e-06
6.84303e-06
6.30289e-06
4.58042e-06
2.11547e-06
7.05511e-06
-1.67964e-06
6.63528e-06
-2.98288e-06
1.23643e-05
-2.47112e-06
1.3266e-05
-4.01166e-07
1.20018e-05
2.53288e-06
1.00166e-05
5.69879e-06
7.96212e-06
8.64132e-06
6.08734e-06
1.10679e-05
4.41646e-06
1.27803e-05
2.86803e-06
1.29869e-06
1.35971e-05
-2.00177e-06
8.63705e-06
-1.81004e-06
1.21726e-05
9.59319e-07
1.04967e-05
4.88515e-06
8.07593e-06
8.93007e-06
5.97166e-06
1.25572e-05
4.33501e-06
1.55393e-05
3.1052e-06
1.78026e-05
2.15313e-06
1.93167e-05
1.35401e-06
5.94371e-07
2.0021e-05
-7.62547e-07
9.3996e-06
3.19808e-06
8.21193e-06
8.63036e-06
5.06439e-06
1.35865e-05
3.11983e-06
1.75797e-05
1.97838e-06
2.06268e-05
1.28791e-06
2.28745e-05
8.57578e-07
2.44607e-05
5.66912e-07
2.54708e-05
3.43872e-07
1.42855e-07
2.59223e-05
9.3996e-06
1.76115e-05
2.26759e-05
2.57958e-05
2.77741e-05
2.9062e-05
2.99196e-05
3.04865e-05
3.08304e-05
3.09733e-05
-1.38734e-05
-1.7443e-06
-1.31398e-05
-5.98392e-06
-1.18215e-05
-9.05313e-06
-9.99937e-06
-1.09011e-05
-7.82173e-06
-1.15191e-05
-5.51037e-06
-1.0971e-05
-3.33466e-06
-9.41531e-06
-1.56313e-06
-7.10228e-06
-4.10797e-07
-4.34287e-06
-1.46425e-06
-1.22409e-05
-1.69396e-06
-1.19136e-05
-6.31116e-06
-1.11346e-05
-9.83217e-06
-9.8438e-06
-1.21919e-05
-8.06469e-06
-1.32982e-05
-5.94423e-06
-1.30914e-05
-3.75041e-06
-1.16091e-05
-1.82382e-06
-9.02886e-06
-4.95789e-07
-5.6709e-06
-1.96004e-06
-9.23961e-06
-1.51755e-06
-9.38898e-06
-6.1618e-06
-9.31942e-06
-9.90174e-06
-8.82077e-06
-1.26906e-05
-7.7505e-06
-1.43685e-05
-6.11253e-06
-1.47294e-05
-4.1054e-06
-1.36163e-05
-2.11042e-06
-1.10238e-05
-6.03336e-07
-7.17798e-06
-2.56338e-06
-4.91171e-06
-1.25714e-06
-5.53392e-06
-5.53959e-06
-6.24983e-06
-9.18583e-06
-6.73335e-06
-1.2207e-05
-6.67162e-06
-1.44302e-05
-5.86538e-06
-1.55356e-05
-4.34231e-06
-1.51393e-05
-2.43442e-06
-1.29317e-05
-7.53898e-07
-8.8585e-06
-3.31727e-06
5.3822e-07
-9.61792e-07
-4.69263e-07
-4.53211e-06
-1.90966e-06
-7.74543e-06
-3.42054e-06
-1.06961e-05
-4.57571e-06
-1.32751e-05
-4.96137e-06
-1.515e-05
-4.32798e-06
-1.57727e-05
-2.78923e-06
-1.44705e-05
-9.83197e-07
-1.06645e-05
-4.30047e-06
6.76646e-06
-6.73144e-07
5.53423e-06
-3.29987e-06
3.58243e-06
-5.79363e-06
1.2069e-06
-8.32062e-06
-1.17439e-06
-1.08938e-05
-3.0173e-06
-1.33071e-05
-3.75744e-06
-1.50326e-05
-3.07346e-06
-1.51545e-05
-1.32865e-06
-1.24094e-05
-5.62912e-06
1.33418e-05
-4.17916e-07
1.20883e-05
-2.04637e-06
9.96475e-06
-3.67005e-06
7.11789e-06
-5.47376e-06
3.80895e-06
-7.58484e-06
5.17322e-07
-1.00154e-05
-2.01313e-06
-1.25021e-05
-2.90654e-06
-1.42611e-05
-1.7478e-06
-1.35681e-05
-7.37692e-06
1.98138e-05
-2.1072e-07
1.87451e-05
-9.77643e-07
1.68501e-05
-1.7751e-06
1.4113e-05
-2.73664e-06
1.0544e-05
-4.01589e-06
6.31666e-06
-5.78807e-06
1.97967e-06
-8.16514e-06
-1.30567e-06
-1.09757e-05
-1.90477e-06
-1.2969e-05
-9.28168e-06
2.57759e-05
-6.42634e-08
2.50603e-05
-2.62084e-07
2.37603e-05
-4.75082e-07
2.17745e-05
-7.50844e-07
1.8923e-05
-1.16438e-06
1.49865e-05
-1.85152e-06
9.87233e-06
-3.05103e-06
4.06029e-06
-5.16367e-06
-3.99605e-07
-8.50911e-06
-9.68129e-06
3.0909e-05
3.06469e-05
3.01718e-05
2.9421e-05
2.82566e-05
2.64051e-05
2.33541e-05
1.81904e-05
9.68129e-06
)
;

boundaryField
{
    movingWall
    {
        type            calculated;
        value           uniform 0;
    }
    fixedWalls
    {
        type            calculated;
        value           uniform 0;
    }
    frontAndBack
    {
        type            empty;
        value           nonuniform 0();
    }
}


// ************************************************************************* //
