/*--------------------------------*- C++ -*----------------------------------*\
  =========                 |
  \\      /  F ield         | OpenFOAM: The Open Source CFD Toolbox
   \\    /   O peration     | Website:  https://openfoam.org
    \\  /    A nd           | Version:  6
     \\/     M anipulation  |
\*---------------------------------------------------------------------------*/
FoamFile
{
    version     2.0;
    format      ascii;
    class       volVectorField;
    location    "0.2";
    object      U;
}
// * * * * * * * * * * * * * * * * * * * * * * * * * * * * * * * * * * * * * //

dimensions      [0 1 -1 0 0 0 0];

internalField   nonuniform List<vector> 
400
(
(0.000129691 -0.000128501 0)
(0.000242824 -5.12356e-05 0)
(-7.34271e-05 0.000131724 0)
(-0.000976161 0.000311162 0)
(-0.00247122 0.000447097 0)
(-0.00445309 0.00052198 0)
(-0.00672684 0.000527478 0)
(-0.00901597 0.000461109 0)
(-0.0109707 0.000324996 0)
(-0.012184 0.000126845 0)
(5.93584e-05 -0.000247382 0)
(-0.000233207 0.000246083 0)
(-0.00159462 0.00110078 0)
(-0.00429422 0.00194839 0)
(-0.00836981 0.00260346 0)
(-0.01362 0.00295861 0)
(-0.019592 0.00295232 0)
(-0.0255921 0.00255957 0)
(-0.0307121 0.00178846 0)
(-0.0338832 0.000685764 0)
(-0.000115159 4.44912e-05 0)
(-0.0010814 0.00159579 0)
(-0.00378134 0.00375689 0)
(-0.00841983 0.00587594 0)
(-0.0149909 0.00752374 0)
(-0.023213 0.00840188 0)
(-0.0324378 0.00831726 0)
(-0.0416429 0.00717779 0)
(-0.0494679 0.00499389 0)
(-0.0543 0.00189705 0)
(-0.000300155 0.000926292 0)
(-0.00201408 0.00434899 0)
(-0.00620453 0.00844668 0)
(-0.0129179 0.012337 0)
(-0.0220178 0.0153247 0)
(-0.033107 0.0168651 0)
(-0.0453532 0.0165728 0)
(-0.0574564 0.0142449 0)
(-0.0676856 0.00988279 0)
(-0.073984 0.00373799 0)
(-0.000475789 0.00249345 0)
(-0.00294672 0.0087939 0)
(-0.00870104 0.0155608 0)
(-0.0176009 0.0217212 0)
(-0.0293176 0.0263239 0)
(-0.0432884 0.0285634 0)
(-0.0584796 0.0278367 0)
(-0.0733328 0.023808 0)
(-0.0858023 0.0164686 0)
(-0.093467 0.00622034 0)
(-0.00064525 0.00482617 0)
(-0.00387786 0.01522 0)
(-0.0112529 0.0255665 0)
(-0.0224522 0.0345921 0)
(-0.0369141 0.0410921 0)
(-0.0538616 0.044004 0)
(-0.0720277 0.0425115 0)
(-0.0895963 0.0361554 0)
(-0.104245 0.0249345 0)
(-0.113254 0.00943624 0)
(-0.000819858 0.00803561 0)
(-0.00484659 0.0239723 0)
(-0.0139327 0.0390106 0)
(-0.0275791 0.0516221 0)
(-0.0449546 0.0603317 0)
(-0.0650195 0.0638328 0)
(-0.0862375 0.061129 0)
(-0.10653 0.0516823 0)
(-0.123337 0.0355467 0)
(-0.13371 0.0135351 0)
(-0.00101527 0.0122948 0)
(-0.00591702 0.0355207 0)
(-0.0168746 0.0565906 0)
(-0.0331768 0.0736323 0)
(-0.0536641 0.084872 0)
(-0.0769748 0.0887868 0)
(-0.101268 0.0842738 0)
(-0.124214 0.0708116 0)
(-0.143077 0.0485953 0)
(-0.154798 0.018711 0)
(-0.00125126 0.0178707 0)
(-0.00717438 0.0505372 0)
(-0.0202599 0.0792349 0)
(-0.0394935 0.101635 0)
(-0.0632722 0.115646 0)
(-0.0898237 0.119603 0)
(-0.116972 0.112445 0)
(-0.142186 0.0938428 0)
(-0.162704 0.0642781 0)
(-0.175565 0.0251623 0)
(-0.00155532 0.0251676 0)
(-0.00873913 0.0699851 0)
(-0.0243342 0.10817 0)
(-0.0468129 0.136809 0)
(-0.0739055 0.15353 0)
(-0.10329 0.156726 0)
(-0.132447 0.145678 0)
(-0.158797 0.120569 0)
(-0.179852 0.0823998 0)
(-0.193157 0.0329563 0)
(-0.0122368 -0.000105484 0)
(-0.0110925 -0.000316283 0)
(-0.00913791 -0.000467568 0)
(-0.00679793 -0.000543245 0)
(-0.0044594 -0.000537912 0)
(-0.00243069 -0.000455832 0)
(-0.000920991 -0.000310089 0)
(-3.17063e-05 -0.000123494 0)
(0.000260272 6.01096e-05 0)
(0.00013257 0.000131413 0)
(-0.0339994 -0.000590529 0)
(-0.0309811 -0.00174954 0)
(-0.0258638 -0.00258888 0)
(-0.0197561 -0.00302414 0)
(-0.0136451 -0.00303227 0)
(-0.00829216 -0.00264595 0)
(-0.00418021 -0.00194757 0)
(-0.00150293 -0.00106732 0)
(-0.000189212 -0.000206521 0)
(6.92951e-05 0.000264768 0)
(-0.0544626 -0.00166541 0)
(-0.0498466 -0.00489834 0)
(-0.0420329 -0.00724836 0)
(-0.0326856 -0.00849287 0)
(-0.0232706 -0.00858478 0)
(-0.0149017 -0.00763379 0)
(-0.00827131 -0.00588224 0)
(-0.00365493 -0.00368211 0)
(-0.00101692 -0.00149971 0)
(-9.94267e-05 4.71624e-06 0)
(-0.0742014 -0.00330714 0)
(-0.0682007 -0.00969971 0)
(-0.0580085 -0.0143668 0)
(-0.0457386 -0.0168924 0)
(-0.0332494 -0.0172065 0)
(-0.0219581 -0.0155404 0)
(-0.0127599 -0.0123655 0)
(-0.00605452 -0.00832201 0)
(-0.00193191 -0.00417423 0)
(-0.000278783 -0.000829032 0)
(-0.0937789 -0.0054938 0)
(-0.0865608 -0.0161407 0)
(-0.0741937 -0.023979 0)
(-0.0591567 -0.0283448 0)
(-0.0436494 -0.0291317 0)
(-0.0293839 -0.0267104 0)
(-0.0174902 -0.0218127 0)
(-0.0085522 -0.0153947 0)
(-0.00285266 -0.00852473 0)
(-0.000448799 -0.00233156 0)
(-0.113739 -0.00822594 0)
(-0.105458 -0.0243383 0)
(-0.0910548 -0.0363467 0)
(-0.0733013 -0.0432695 0)
(-0.0547097 -0.0449179 0)
(-0.0373075 -0.0417803 0)
(-0.0225143 -0.0348495 0)
(-0.0111661 -0.0254121 0)
(-0.00379033 -0.0148627 0)
(-0.00061479 -0.00458647 0)
(-0.134492 -0.011478 0)
(-0.125344 -0.0344276 0)
(-0.10906 -0.0518062 0)
(-0.0886219 -0.0622183 0)
(-0.0668245 -0.0652967 0)
(-0.0460426 -0.0615757 0)
(-0.028056 -0.0522754 0)
(-0.0140335 -0.0390238 0)
(-0.00480879 -0.0235947 0)
(-0.000792839 -0.00772278 0)
(-0.15605 -0.0151526 0)
(-0.146355 -0.04647 0)
(-0.128502 -0.0706601 0)
(-0.105538 -0.0857845 0)
(-0.0804758 -0.0911327 0)
(-0.0560508 -0.0871339 0)
(-0.0344846 -0.0751461 0)
(-0.01739 -0.0571336 0)
(-0.00601255 -0.0353285 0)
(-0.00100678 -0.0119615 0)
(-0.177482 -0.0190224 0)
(-0.167817 -0.0603095 0)
(-0.14909 -0.0929919 0)
(-0.124156 -0.114437 0)
(-0.0960605 -0.123328 0)
(-0.0678562 -0.119708 0)
(-0.042283 -0.10487 0)
(-0.0215618 -0.0810453 0)
(-0.00754771 -0.0510049 0)
(-0.00128947 -0.0176725 0)
(-0.195881 -0.0226466 0)
(-0.18725 -0.0752849 0)
(-0.169103 -0.118249 0)
(-0.143622 -0.148081 0)
(-0.113487 -0.162479 0)
(-0.0818503 -0.160601 0)
(-0.0519942 -0.143227 0)
(-0.0269765 -0.112611 0)
(-0.00961917 -0.0720669 0)
(-0.00168816 -0.0254569 0)
(-0.0019599 0.034441 0)
(-0.0107439 0.0942867 0)
(-0.0292974 0.14354 0)
(-0.0551414 0.178603 0)
(-0.0849567 0.197063 0)
(-0.115708 0.197849 0)
(-0.144639 0.181172 0)
(-0.169483 0.148256 0)
(-0.188588 0.100936 0)
(-0.200674 0.0413702 0)
(-0.00252466 0.0455107 0)
(-0.0133713 0.122475 0)
(-0.0352883 0.183042 0)
(-0.0640831 0.223041 0)
(-0.0948829 0.240691 0)
(-0.123917 0.236399 0)
(-0.148582 0.212196 0)
(-0.167587 0.170959 0)
(-0.180873 0.115601 0)
(-0.189086 0.0484976 0)
(-0.00341111 0.0584978 0)
(-0.0170819 0.15398 0)
(-0.0427412 0.224473 0)
(-0.0733153 0.265919 0)
(-0.10194 0.278607 0)
(-0.12453 0.265863 0)
(-0.139508 0.232523 0)
(-0.14747 0.183516 0)
(-0.150658 0.122743 0)
(-0.152104 0.0524393 0)
(-0.00498161 0.0744346 0)
(-0.0227959 0.189573 0)
(-0.0523233 0.266523 0)
(-0.0820195 0.303508 0)
(-0.103168 0.305562 0)
(-0.112727 0.280785 0)
(-0.111614 0.237524 0)
(-0.103295 0.182563 0)
(-0.0926538 0.120191 0)
(-0.084989 0.0519289 0)
(-0.00795235 0.0953271 0)
(-0.0318821 0.230109 0)
(-0.0639572 0.306344 0)
(-0.0869238 0.329988 0)
(-0.0921993 0.314968 0)
(-0.0805644 0.275727 0)
(-0.0571994 0.22375 0)
(-0.0288958 0.166447 0)
(-0.00266774 0.10731 0)
(0.0148731 0.0465118 0)
(-0.0134604 0.124671 0)
(-0.0454707 0.275181 0)
(-0.0743312 0.337438 0)
(-0.0790482 0.33644 0)
(-0.0568604 0.299418 0)
(-0.0160992 0.246652 0)
(0.0330085 0.190365 0)
(0.0813668 0.136246 0)
(0.121544 0.0856011 0)
(0.147323 0.0369 0)
(-0.022115 0.168419 0)
(-0.0609852 0.319577 0)
(-0.070757 0.346 0)
(-0.0385209 0.310225 0)
(0.0228718 0.252373 0)
(0.0960531 0.193059 0)
(0.168181 0.140556 0)
(0.231003 0.0963081 0)
(0.279298 0.0587283 0)
(0.309096 0.0249463 0)
(-0.0285811 0.232674 0)
(-0.0614625 0.344463 0)
(-0.0194365 0.308203 0)
(0.0711378 0.238777 0)
(0.174419 0.173455 0)
(0.271501 0.121545 0)
(0.354152 0.0828876 0)
(0.419326 0.0541935 0)
(0.466188 0.0319789 0)
(0.493957 0.0132366 0)
(0.00799087 0.282863 0)
(0.020179 0.300573 0)
(0.154039 0.205857 0)
(0.303682 0.130607 0)
(0.425337 0.081953 0)
(0.518784 0.051555 0)
(0.588807 0.032587 0)
(0.639444 0.020232 0)
(0.673771 0.0114936 0)
(0.693278 0.00453055 0)
(0.305485 0.144738 0)
(0.408941 0.125503 0)
(0.582953 0.0698639 0)
(0.70887 0.036505 0)
(0.781828 0.0194297 0)
(0.827112 0.0107113 0)
(0.857105 0.00614982 0)
(0.877146 0.003575 0)
(0.890015 0.00192591 0)
(0.896965 0.000684442 0)
(-0.204065 -0.0251266 0)
(-0.198001 -0.0890684 0)
(-0.183084 -0.143276 0)
(-0.160083 -0.183523 0)
(-0.130563 -0.206109 0)
(-0.097206 -0.208541 0)
(-0.0636248 -0.190208 0)
(-0.0339171 -0.152692 0)
(-0.0124231 -0.0995766 0)
(-0.00225451 -0.035865 0)
(-0.192479 -0.0255428 0)
(-0.190591 -0.0979395 0)
(-0.182355 -0.162061 0)
(-0.166412 -0.213388 0)
(-0.142241 -0.246723 0)
(-0.111047 -0.257159 0)
(-0.0760399 -0.241411 0)
(-0.0422278 -0.199002 0)
(-0.0160747 -0.132827 0)
(-0.00304376 -0.0489122 0)
(-0.154436 -0.023832 0)
(-0.15778 -0.0996325 0)
(-0.159372 -0.170026 0)
(-0.155468 -0.231071 0)
(-0.14273 -0.276602 0)
(-0.11965 -0.299055 0)
(-0.0876473 -0.291205 0)
(-0.0517572 -0.248446 0)
(-0.0208734 -0.170922 0)
(-0.00419944 -0.0647117 0)
(-0.0851622 -0.020477 0)
(-0.0940072 -0.0935228 0)
(-0.107495 -0.164838 0)
(-0.119953 -0.232098 0)
(-0.12519 -0.2894 0)
(-0.117999 -0.327266 0)
(-0.096084 -0.333935 0)
(-0.0623996 -0.298258 0)
(-0.0275414 -0.21395 0)
(-0.00607034 -0.084192 0)
(0.0175137 -0.0162101 0)
(0.00386655 -0.0803179 0)
(-0.0215761 -0.146205 0)
(-0.052487 -0.213956 0)
(-0.0809381 -0.279622 0)
(-0.0981281 -0.333885 0)
(-0.0963437 -0.361574 0)
(-0.0729731 -0.34344 0)
(-0.0371342 -0.261546 0)
(-0.0093545 -0.109122 0)
(0.152564 -0.0117714 0)
(0.135739 -0.0620521 0)
(0.100886 -0.116433 0)
(0.053255 -0.177438 0)
(0.000201626 -0.244501 0)
(-0.0479152 -0.311506 0)
(-0.0781222 -0.363562 0)
(-0.0786525 -0.374951 0)
(-0.0501163 -0.311416 0)
(-0.0150871 -0.142579 0)
(0.315741 -0.00770188 0)
(0.298039 -0.0417047 0)
(0.258896 -0.080304 0)
(0.201042 -0.127444 0)
(0.128574 -0.186041 0)
(0.0494341 -0.255688 0)
(-0.0221228 -0.327561 0)
(-0.0653138 -0.377078 0)
(-0.0624716 -0.355832 0)
(-0.0233962 -0.189775 0)
(0.50017 -0.00430628 0)
(0.484231 -0.0226845 0)
(0.447727 -0.0444641 0)
(0.390584 -0.0732489 0)
(0.312195 -0.11353 0)
(0.213952 -0.170123 0)
(0.103208 -0.244643 0)
(-0.000123803 -0.326885 0)
(-0.0552509 -0.373184 0)
(-0.0274785 -0.254466 0)
(0.69732 -0.00181437 0)
(0.6858 -0.00849348 0)
(0.659301 -0.0167051 0)
(0.616196 -0.0283781 0)
(0.552661 -0.0467422 0)
(0.463167 -0.0773809 0)
(0.340864 -0.128872 0)
(0.183656 -0.211087 0)
(0.0372223 -0.313896 0)
(0.0155717 -0.295942 0)
(0.898067 -0.000422435 0)
(0.893381 -0.00159427 0)
(0.882981 -0.00308638 0)
(0.865784 -0.00537151 0)
(0.839071 -0.00942695 0)
(0.797383 -0.0174157 0)
(0.727987 -0.0339272 0)
(0.603079 -0.0678114 0)
(0.423145 -0.125925 0)
(0.311856 -0.147041 0)
)
;

boundaryField
{
    movingWall
    {
        type            fixedValue;
        value           uniform (1 0 0);
    }
    fixedWalls
    {
        type            noSlip;
    }
    frontAndBack
    {
        type            empty;
    }
}


// ************************************************************************* //
