/*--------------------------------*- C++ -*----------------------------------*\
  =========                 |
  \\      /  F ield         | OpenFOAM: The Open Source CFD Toolbox
   \\    /   O peration     | Website:  https://openfoam.org
    \\  /    A nd           | Version:  6
     \\/     M anipulation  |
\*---------------------------------------------------------------------------*/
FoamFile
{
    version     2.0;
    format      ascii;
    class       volScalarField;
    location    "0.1";
    object      Co;
}
// * * * * * * * * * * * * * * * * * * * * * * * * * * * * * * * * * * * * * //

dimensions      [0 0 0 0 0 0 0];

internalField   nonuniform List<scalar> 
242
(
0.00173512
0.000223598
0.000217146
0.0131017
0.012538
0.000223598
0.000217146
0.0131017
0.012538
0.00143923
0.00363727
0.00249139
0.00266015
0.00166599
0.00240838
0.00307546
0.00257514
0.00238936
0.00366662
0.00241572
0.00356046
0.001125
0.00368144
0.00450645
0.00105153
0.00153802
0.00365779
0.00352672
0.000906266
0.00157877
0.00403282
0.00440064
0.00113377
0.00150924
0.0015006
0.0183843
0.00159876
0.00217396
0.000776826
0.00259037
0.000925622
0.0226384
0.001905
0.00281661
0.00122719
0.0041249
0.00345703
0.000998983
0.00165432
0.0045812
0.00181561
0.00237116
0.00316673
0.00278042
0.0034069
0.000865307
0.0035698
0.00124907
0.0203389
0.00487257
0.000706722
0.000558891
0.0051448
0.000577408
0.0188404
0.000688006
0.019604
0.00177244
0.00219417
0.00078405
0.00418569
0.00519662
0.000923813
0.0010385
0.00567273
0.00270973
0.00221939
0.00136267
0.00497444
0.00343068
0.00181385
0.00167901
0.00706141
0.00745815
0.000899138
0.0008047
0.00479404
0.00461512
0.00122101
0.00121537
0.00345395
0.00338078
0.00218443
0.00202069
0.0255979
0.00231436
0.00139075
0.000711182
0.00547762
0.00461596
0.0022472
0.00124867
0.0290598
0.00880698
0.00100975
0.000798527
0.00947642
0.000847767
0.0276621
0.00101015
0.00430036
0.00580565
0.00085831
0.00108113
0.00704667
0.00598194
0.0008132
0.00085583
0.00042093
0.0220906
0.000372965
0.00752782
0.00802568
0.000386993
0.0214814
0.000412392
0.00384487
0.00245345
0.00171013
0.000930671
0.000421315
0.000373307
0.0221108
0.0156733
0.016378
0.000387348
0.0215011
0.00041277
0.00528939
0.00493077
0.000832415
0.000892661
0.00427473
0.0023889
0.00203952
0.00160725
0.00735157
0.00367101
0.0056046
0.00158951
0.00368595
0.00177743
0.00453498
0.00121196
0.0280959
0.00634499
0.00377908
0.0031488
0.00354671
0.00363172
0.00129561
0.000916036
0.0246144
0.00604333
0.000860731
0.00067825
0.000920282
0.000727779
0.00134553
0.000919075
0.00388737
0.00308632
0.00251817
0.00116393
0.00460781
0.00470441
0.00274134
0.00218746
0.00937585
0.00990267
0.0104148
0.000550791
0.00883953
0.000572191
0.00059448
0.000536944
0.00568748
0.00556242
0.00363265
0.0037047
0.0020076
0.00180738
0.00132711
0.00114852
0.00536396
0.00484167
0.00339986
0.00453172
0.00186258
0.00163451
0.00126163
0.00139483
0.00677636
0.00631537
0.00118831
0.00121611
0.00685203
0.00921399
0.00944763
0.00707256
0.000746022
0.000746025
0.000723551
0.000723551
0.00283573
0.0033177
0.034385
0.00332451
0.00404252
0.00436476
0.00186817
0.000955313
0.00158004
0.00107926
0.0317333
0.0031017
0.00096925
0.000618835
0.00318808
0.000660276
0.0288657
0.00100939
0.00748312
0.00388155
0.00245669
0.00194153
0.00473106
0.0043731
0.00210429
0.00114518
0.0022522
0.00256967
)
;

boundaryField
{
    frontAndBack
    {
        type            empty;
    }
    fixedWalls
    {
        type            zeroGradient;
    }
    movingWall
    {
        type            zeroGradient;
    }
}


// ************************************************************************* //
