/*--------------------------------*- C++ -*----------------------------------*\
  =========                 |
  \\      /  F ield         | OpenFOAM: The Open Source CFD Toolbox
   \\    /   O peration     | Website:  https://openfoam.org
    \\  /    A nd           | Version:  6
     \\/     M anipulation  |
\*---------------------------------------------------------------------------*/
FoamFile
{
    version     2.0;
    format      ascii;
    class       volScalarField;
    location    "0.1";
    object      p;
}
// * * * * * * * * * * * * * * * * * * * * * * * * * * * * * * * * * * * * * //

dimensions      [0 2 -2 0 0 0 0];

internalField   nonuniform List<scalar> 
242
(
-1.11597e-08
0.0209518
-0.0246857
0.353687
-0.36923
0.0203974
-0.0252213
0.396392
-0.323899
-0.00372591
-0.0218868
0.0385891
-0.032211
0.00270411
-0.0196872
-0.0225885
0.0124076
0.0211485
-0.018295
-0.0385437
0.0432925
0.00104104
-0.0791473
0.0510067
-0.0160272
0.0281959
-0.0730448
0.0542208
-0.0187259
0.0233028
0.0739507
-0.0641607
0.0112456
-0.0326075
-0.01549
-0.0121135
-0.0526614
0.0670171
0.0010525
0.0763653
0.00430495
-0.0352192
-0.0460158
0.026361
-0.00363264
0.0655072
-0.0640895
0.0138319
-0.0275836
-0.0327753
-0.0179638
-0.0175185
-0.01104
0.00462039
0.0775583
0.00568225
-0.0565123
-0.0420581
0.129653
-0.141533
0.0278071
-0.0187586
0.14295
0.0142613
-0.114626
-0.0318444
-0.0114022
-0.0610285
0.0547721
-0.00317654
0.0991578
-0.0902098
0.0128907
-0.0322349
-0.00917766
-0.0554185
0.0496974
-0.00273299
0.0256112
-0.0457656
0.02073
-0.0148393
0.105183
-0.126636
0.0237862
-0.021457
0.0418967
-0.0570813
0.0198833
-0.018423
0.0190911
0.0244596
0.0122923
0.0086769
-0.00163398
-0.0715855
0.0479492
-0.00643365
-0.0284669
0.0530408
-0.0405071
0.00231603
0.142787
-0.160732
0.025283
-0.0207662
0.163147
0.0163279
-0.141617
-0.029435
-0.102716
0.0742706
-0.0174437
0.0281668
0.120805
-0.113591
0.016955
-0.0280569
0.02294
0.191261
-0.0228291
-0.211722
0.218978
0.0184688
-0.203725
-0.0271509
0.0029806
-0.0617923
0.0487877
-0.00444827
0.0219012
-0.0237445
0.234113
-0.243613
0.249818
0.0194224
-0.233864
-0.0261394
0.10142
-0.107905
0.0198016
-0.0243953
0.0118608
-0.0425743
0.0270884
-0.0085504
-0.0229441
-0.0484399
-0.0409466
-0.042563
0.0559146
0.00067961
0.0676792
0.00443362
0.0860452
-0.115964
-0.0826381
0.0575686
-0.100559
0.0980375
-0.0354568
0.0108583
-0.102313
0.114362
-0.03505
0.0114615
0.0310502
-0.0161169
0.0316562
-0.015399
0.00511066
-0.048093
0.0344111
-0.00617747
-0.000225672
-0.0117144
-0.0294874
-0.0272518
0.137239
-0.153366
0.152089
0.0233971
-0.146647
-0.0220013
0.0176219
-0.0275932
0.0277703
0.0111464
-0.0694915
-0.0572109
0.0372914
0.0348239
-0.0107146
-0.00697623
-0.0367805
-0.052413
0.0401195
0.0506545
-0.0261225
0.00854589
-0.0246449
0.0132714
0.0770891
-0.0849852
0.0192882
-0.0234869
0.167215
-0.182339
0.178986
-0.175524
0.0216029
0.0196444
-0.023973
-0.0258671
0.0011682
0.00668106
0.0215484
-0.0838965
0.035302
-0.0850887
0.0404006
-0.0102367
0.0373808
-0.011286
0.041895
-0.0979576
0.0357185
-0.0130784
0.0966024
0.00838744
-0.0837022
-0.039557
-0.046051
0.0656244
-0.0381863
0.00656029
0.0225012
-0.0741325
0.0396826
-0.00929522
-0.00150718
-0.00978782
)
;

boundaryField
{
    frontAndBack
    {
        type            empty;
    }
    fixedWalls
    {
        type            zeroGradient;
    }
    movingWall
    {
        type            zeroGradient;
    }
}


// ************************************************************************* //
