/*--------------------------------*- C++ -*----------------------------------*\
  =========                 |
  \\      /  F ield         | OpenFOAM: The Open Source CFD Toolbox
   \\    /   O peration     | Website:  https://openfoam.org
    \\  /    A nd           | Version:  6
     \\/     M anipulation  |
\*---------------------------------------------------------------------------*/
FoamFile
{
    version     2.0;
    format      ascii;
    class       surfaceScalarField;
    location    "0.1";
    object      phi;
}
// * * * * * * * * * * * * * * * * * * * * * * * * * * * * * * * * * * * * * //

dimensions      [0 3 -1 0 0 0 0];

internalField   nonuniform List<scalar> 
343
(
0.000148555
-0.000151094
2.53886e-06
2.23325e-05
-2.23325e-05
2.16881e-05
-2.16881e-05
0.00130857
-0.00130857
0.00125227
-0.00125227
2.23325e-05
2.16881e-05
0.00130857
0.00125227
0.000132541
1.60147e-05
-0.000127538
-0.000167386
0.000294923
-0.000177356
0.000181502
-4.14556e-06
0.000227932
-9.06934e-05
-0.000137238
4.78829e-05
7.41051e-05
-0.000121988
0.000109733
-0.000259167
0.000149434
0.000295654
-0.000185921
-0.000246876
0.000226279
2.05972e-05
-0.000209449
-3.74268e-05
0.000215625
-0.000343163
8.58461e-05
0.000142086
-0.000274934
9.75776e-05
-3.85023e-05
8.63853e-05
-0.000194275
0.000393095
-0.00019882
-6.91845e-05
-0.000415804
0.000484988
9.16675e-05
2.14989e-05
-0.000113166
0.000165523
-1.14015e-05
-0.000154121
-0.00037012
0.000175845
0.000300566
-0.00036975
-3.34778e-06
9.50153e-05
8.45064e-05
8.10164e-05
0.000223178
-0.000403364
0.000180186
2.18567e-05
0.000419406
-0.000441263
-8.56142e-05
-2.77855e-05
0.0001134
-0.000152399
6.61514e-06
0.000145784
8.17891e-05
5.07514e-05
-0.00201632
0.00201632
-0.000175346
0.000175346
-0.000238431
0.000238431
-8.51992e-05
8.51992e-05
-8.28974e-06
-0.000230141
-3.7535e-05
-4.76642e-05
6.744e-05
-0.00208376
-0.00010248
-7.28661e-05
-2.79472e-05
9.01198e-05
0.000384646
-0.000161469
-0.000296296
0.000318152
7.54092e-06
-9.31551e-05
-8.48583e-05
-6.75411e-05
0.000217483
7.81712e-05
-4.1208e-05
0.000122997
0.000157749
-0.000106998
-0.000218473
-4.06937e-05
8.11261e-05
0.000145153
0.000271229
-0.000279519
3.34587e-05
-7.09937e-05
-0.000225444
0.000292884
-6.51868e-06
-9.59608e-05
0.0019864
-0.0019864
0.00047588
-0.00047588
6.9022e-05
-6.9022e-05
5.45841e-05
-5.45841e-05
-0.000511604
0.000511604
-5.7418e-05
5.7418e-05
-0.00187351
0.00187351
-6.84159e-05
6.84159e-05
0.00213028
-0.00011396
0.000192603
-1.72573e-05
0.00011574
0.000122691
5.91851e-05
2.60141e-05
-0.000401419
-1.94451e-06
0.000502048
-8.26413e-05
-8.90254e-05
6.124e-05
-9.37959e-05
0.000100411
-0.000203203
0.000451082
-0.000247879
0.000216426
-0.000225112
8.68614e-06
1.83769e-05
-0.000176481
0.000158104
5.0757e-05
-0.000108356
5.75991e-05
-0.000435588
7.66313e-05
0.000358957
0.000293321
-7.58383e-05
2.25119e-05
0.000137926
-0.000160438
0.000102447
-0.000143655
0.000542162
0.000161201
-0.000703363
-0.000401589
-0.000341292
0.000742881
-8.95601e-05
8.36003e-05
5.95985e-06
-8.01534e-05
6.19862e-05
1.81672e-05
-0.000135023
-7.67991e-05
0.000107018
9.90994e-05
-0.000208051
0.000284683
-0.000245478
0.000158523
7.42883e-06
0.00213028
0.000192603
0.00011574
5.91851e-05
-0.000115419
0.000331044
-4.8222e-05
-0.000226712
0.000136108
-5.02621e-05
3.58707e-05
-7.4373e-05
0.00176661
0.000219792
0.00060201
-0.00012613
3.36622e-05
3.53597e-05
2.98265e-05
2.47576e-05
-0.000641822
0.000130218
-3.09484e-05
-2.64696e-05
-0.00171789
-0.000155619
-3.29796e-05
-3.54363e-05
-8.49451e-06
0.000126358
-5.86545e-05
-0.000100962
0.000370018
-0.000771437
-0.000152705
0.000654753
-7.14616e-05
-1.75639e-05
-8.94604e-05
-4.33547e-06
3.36622e-05
0.00176661
2.98265e-05
0.00060201
-0.000641822
-3.09484e-05
-0.00171789
-3.29796e-05
-0.000317163
0.000199168
0.000141068
7.67711e-05
1.13297e-05
8.1384e-06
0.000458038
-0.00065026
0.000666752
-8.61586e-06
-0.000465626
-1.12914e-05
0.000531219
-0.000493997
1.21387e-05
-2.74742e-05
0.000152986
0.000205971
0.000140651
-0.00021649
-0.000188385
-5.35354e-05
0.000335663
-8.90036e-05
0.000110219
-9.55222e-05
-0.000224703
-7.24853e-05
4.65256e-05
-3.90266e-05
0.000120816
-0.00210722
-0.000269915
-0.000205965
0.000210243
0.000247175
-0.000278409
-0.000281463
4.45019e-06
-9.75376e-06
0.00208376
0.000230141
7.28661e-05
4.76642e-05
-4.65983e-06
-6.43621e-05
-1.3491e-05
-4.10931e-05
-0.000105621
-7.21455e-05
-0.000190177
0.000282737
-9.08073e-05
3.28498e-05
0.000353307
-0.000147336
-6.70557e-05
-0.000483571
0.000616752
-0.000641219
4.13196e-05
0.000499134
4.29248e-05
-4.40335e-05
-3.97718e-05
0.000438056
4.69324e-05
-0.000291423
9.26033e-05
6.72969e-05
-8.68244e-05
-9.04489e-05
-2.27176e-05
0.000373095
-0.000249624
-1.42411e-05
-0.000114559
-2.55331e-05
-3.35081e-05
5.26493e-05
5.10632e-05
-0.000137347
2.30555e-05
0.00210722
-1.33623e-05
0.000205965
0.00027023
-0.000291772
5.13782e-05
6.43621e-05
1.8092e-05
4.10931e-05
-5.42433e-05
-5.40535e-05
0.000147691
)
;

boundaryField
{
    frontAndBack
    {
        type            empty;
        value           nonuniform 0();
    }
    fixedWalls
    {
        type            calculated;
        value           uniform 0;
    }
    movingWall
    {
        type            calculated;
        value           uniform 0;
    }
}


// ************************************************************************* //
