/*--------------------------------*- C++ -*----------------------------------*\
  =========                 |
  \\      /  F ield         | OpenFOAM: The Open Source CFD Toolbox
   \\    /   O peration     | Website:  https://openfoam.org
    \\  /    A nd           | Version:  6
     \\/     M anipulation  |
\*---------------------------------------------------------------------------*/
FoamFile
{
    version     2.0;
    format      ascii;
    class       volVectorField;
    location    "0.1";
    object      U;
}
// * * * * * * * * * * * * * * * * * * * * * * * * * * * * * * * * * * * * * //

dimensions      [0 1 -1 0 0 0 0];

internalField   nonuniform List<vector> 
242
(
(-0.0166174 -0.00246168 -6.65024e-22)
(-0.000970382 -0.00166425 8.34829e-20)
(-0.00162684 0.000911887 0)
(0.231634 0.00863559 0)
(0.0193253 0.0639312 1.39855e-18)
(-0.0016721 -0.000942241 -8.34847e-20)
(-0.000945977 0.0016134 0)
(0.0378669 -0.0613331 0)
(0.238019 -0.00619824 -1.4003e-18)
(-0.0151426 -0.000377538 0)
(-0.0331061 0.000858829 5.80376e-20)
(-0.022148 -0.0109977 0)
(-0.0182764 0.00987516 0)
(-0.0129794 -0.000825036 -2.60383e-21)
(-0.0230038 0.00730157 2.41775e-20)
(-0.0265724 0.00731165 0)
(-0.0225133 -0.00427012 5.45717e-21)
(-0.0213476 -0.00736104 0)
(-0.0358433 0.00411531 0)
(-0.016781 0.0123802 0)
(-0.0229491 -0.0144274 -6.34138e-20)
(-0.0108346 -0.000511545 3.91175e-21)
(-0.0269109 0.0235752 1.46264e-19)
(-0.0457651 -0.0117987 0)
(-0.00946676 0.00400364 0)
(-0.0100751 -0.011069 -4.91204e-20)
(-0.029408 0.0202482 -1.53836e-19)
(-0.0381216 -0.0123282 0)
(-0.00892095 0.00446035 -4.67901e-20)
(-0.0116864 -0.00756946 9.22713e-20)
(-0.0275564 -0.0252471 0)
(-0.0458324 0.0127312 -1.57989e-19)
(-0.010153 -0.00410578 -1.6249e-20)
(-0.0101508 0.0108121 6.57392e-20)
(-0.0149767 0.00359784 0)
(0.282246 -0.00474355 4.58593e-20)
(-0.00222844 0.0156683 0)
(-0.000689419 -0.0218887 -1.34075e-19)
(-0.00763998 -0.000469056 0)
(-0.00505268 -0.0298272 2.57022e-19)
(-0.00858793 -0.0012228 0)
(0.0807718 -0.00505318 -1.23617e-19)
(-0.00522963 0.0156438 0)
(-0.0210903 -0.00797935 7.2446e-20)
(-0.0121323 0.00108058 1.61095e-20)
(-0.0316997 -0.0197635 3.93303e-20)
(-0.0360706 0.0151192 0)
(-0.00975189 -0.0043425 -2.04446e-20)
(-0.0116546 0.00695348 0)
(-0.0302215 0.0117939 6.77288e-21)
(-0.0144489 0.00250733 5.24581e-22)
(-0.0175088 0.00571211 -2.01585e-20)
(-0.0250335 0.00559176 0)
(-0.0222578 -0.00028752 -1.37828e-20)
(-0.0143133 -0.0299556 1.77355e-19)
(-0.00834862 -0.00053893 1.22423e-20)
(-0.0337296 -0.00442212 0)
(-0.00591214 0.0119894 0)
(0.314995 -0.00733981 0)
(-0.00228089 0.0475454 0)
(-0.00107154 -0.00653626 2.37411e-20)
(-0.00517386 0.000627364 -1.78182e-20)
(-0.00257748 -0.0502947 -3.14719e-19)
(-0.00538693 -0.00066135 0)
(0.307833 -0.00268118 0)
(-0.00109032 0.0064229 6.17759e-20)
(0.0653582 0.00326416 0)
(-0.005307 0.0208892 0)
(-0.00555332 -0.0211383 0)
(-0.0086021 0.000306732 3.69893e-21)
(-0.0234058 -0.0396248 0)
(-0.0507656 0.0167698 2.72256e-19)
(-0.00825412 -0.00275067 4.15391e-20)
(-0.00638197 0.00868611 -1.01091e-19)
(-0.0462849 -0.00186303 -2.15192e-20)
(-0.0128413 0.0202299 2.05093e-19)
(-0.00824952 -0.0199865 -1.12624e-19)
(-0.0106892 -0.000687107 1.62643e-20)
(-0.039676 -0.00971263 1.0116e-22)
(-0.0251751 0.0169392 1.22681e-19)
(-0.0138663 -0.00989238 0)
(-0.01368 0.00342088 -1.23364e-21)
(-0.0601153 -0.0363645 -2.54398e-19)
(-0.0457023 0.047039 -2.92569e-19)
(-0.00542651 -0.00702088 0)
(-0.00685701 0.00330655 4.48666e-20)
(-0.037263 -0.0171215 0)
(-0.0312555 0.0189582 -2.00381e-19)
(-0.0110274 -0.00681847 -3.0797e-20)
(-0.0113579 0.00304794 4.49009e-20)
(-0.0284585 -0.00463605 5.38263e-20)
(-0.0271155 -0.00539518 -6.09242e-20)
(-0.0167862 -0.0064904 4.29414e-21)
(-0.0166136 -0.00553888 7.36362e-22)
(0.412217 -0.00247504 0)
(-0.00293309 0.0193672 9.44723e-20)
(-0.000304525 -0.0126412 -5.23963e-20)
(-0.00616191 -0.000305047 -1.03455e-20)
(-0.0399659 0.00939384 0)
(-0.0227733 -0.0210537 -1.08376e-19)
(-0.013307 0.0114598 -7.31708e-20)
(-0.0100741 0.000581962 -1.03594e-20)
(0.0881854 -0.0110869 -1.03497e-19)
(-0.0114036 0.0717938 0)
(-0.0030001 -0.0065876 -9.56441e-20)
(-0.00552455 0.00200651 0)
(-0.0124236 -0.0755397 4.60925e-19)
(-0.00577556 -0.00208182 1.26045e-20)
(0.0845303 0.00133425 -1.26353e-19)
(-0.00294588 0.00649999 -9.06033e-20)
(-0.0235635 0.0388399 0)
(-0.0554162 -0.0157671 0)
(-0.00790949 0.00241494 0)
(-0.00623638 -0.00912112 0)
(-0.0469684 -0.0465656 0)
(-0.0542849 0.0332774 -3.46327e-19)
(-0.00713458 -0.00368751 -1.39227e-20)
(-0.00559591 0.00684312 2.84646e-20)
(-0.000967781 -0.00324032 -5.56024e-20)
(0.383835 0.00896965 0)
(-0.0028725 0.000766865 -5.77515e-20)
(0.00220169 0.0722673 0)
(0.00149719 -0.0774596 0)
(-0.00298245 -0.00079764 0)
(0.376579 -0.00373525 -4.37512e-19)
(-0.000950742 0.00317868 4.84797e-20)
(-0.0303166 0.00659079 0)
(-0.00951229 0.0217469 -1.55245e-19)
(-0.00798451 -0.0166044 1.21506e-19)
(-0.00886046 0.000154588 -1.36282e-20)
(-0.00183753 -0.00311427 4.32477e-20)
(-0.0029661 0.00154778 7.44874e-20)
(0.0409152 -0.015844 0)
(-0.0260716 0.134218 0)
(-0.0232967 -0.142924 0)
(-0.00306265 -0.00161151 0)
(0.022951 0.0197549 4.28248e-19)
(-0.00180848 0.0030331 -8.43946e-20)
(-0.0475986 -0.028695 0)
(-0.0427624 0.0306808 0)
(-0.00715376 -0.0050245 0)
(-0.00716296 0.0048386 0)
(-0.0367997 -8.37199e-05 0)
(-0.0205065 0.0135053 0)
(-0.0156155 -0.0113059 -5.90683e-20)
(-0.0136702 0.00192089 -5.08059e-21)
(-0.0489366 -0.000310055 2.74377e-20)
(-0.0114611 0.0198748 6.24269e-20)
(-0.04327 0.00782402 0)
(-0.00613954 0.0131544 -7.51613e-20)
(-0.0122748 -0.0235145 2.02502e-21)
(-0.0113168 -0.000921309 -1.30408e-21)
(-0.0195883 -0.0251944 -2.38586e-19)
(-0.00925447 2.39259e-05 -2.56131e-20)
(0.107611 -0.0135572 0)
(-0.0135266 0.0482788 0)
(-0.0365604 0.0180686 0)
(-0.03444 -0.0190628 0)
(-0.0171137 0.0349024 2.97738e-20)
(-0.0185184 -0.0355688 0)
(-0.00509266 0.010277 0)
(-0.00802639 -0.00204514 0)
(0.0681244 0.0130932 2.22763e-19)
(-0.0144934 -0.0494825 2.52643e-19)
(-0.00228145 0.00923869 9.03512e-20)
(-0.0070586 -0.000706463 2.3628e-20)
(-0.00192376 -0.00936544 4.00982e-20)
(-0.00684071 0.000544125 2.33552e-20)
(-0.00480555 -0.0107036 0)
(-0.00777564 0.00188605 0)
(-0.0375031 -0.00330969 1.91748e-20)
(-0.0221632 0.0144593 -1.1817e-19)
(-0.0151994 -0.0122129 9.663e-20)
(-0.0107957 0.000803539 8.87676e-21)
(-0.0350364 0.00125474 8.02018e-21)
(-0.0348048 0.00480554 -2.24057e-20)
(-0.0206373 0.0101497 -1.44159e-20)
(-0.0171806 0.0100831 -1.98491e-20)
(-0.0504163 -0.0401377 3.75418e-19)
(-0.0452963 0.0625261 3.82636e-19)
(-0.0483242 -0.0641494 5.66137e-20)
(-0.00327676 -0.00517861 1.64272e-20)
(-0.0513786 0.0325311 3.64701e-19)
(-0.00517351 0.00189832 -5.86592e-20)
(-0.0053541 -0.00203047 -1.158e-20)
(-0.00328311 0.00503239 1.95139e-20)
(-0.0509514 -0.00265705 -1.48538e-20)
(-0.0442067 -0.00467378 -2.13698e-20)
(-0.0170216 0.0260308 1.60527e-19)
(-0.0207871 0.0213621 -2.65132e-20)
(-0.0124579 -0.0128211 5.65625e-20)
(-0.00891913 -0.0130595 -1.08837e-19)
(-0.0110132 0.00155553 2.09853e-20)
(-0.0100246 8.86594e-05 -4.56257e-20)
(-0.0386447 0.00822629 -4.9694e-20)
(-0.0352117 0.0175954 7.19534e-20)
(-0.0264521 -0.0165206 -6.20846e-20)
(-0.0325799 -0.0177119 5.41044e-20)
(-0.0145008 0.00791468 9.39433e-22)
(-0.0146051 -0.00262595 0)
(-0.0112187 0.00556199 0)
(-0.0124867 -0.00354364 1.31429e-20)
(-0.0455908 -0.0256197 -4.68718e-20)
(-0.0394432 0.0290051 0)
(-0.00904153 -0.00570556 -1.09653e-20)
(-0.00865346 0.00539956 1.40503e-20)
(-0.0568879 -0.0557664 5.46533e-20)
(-0.0648903 0.0645528 0)
(-0.06795 -0.0683065 -5.93646e-20)
(-0.0583799 0.0536093 1.45193e-19)
(-0.00328974 -0.00455811 1.55645e-20)
(-0.00484027 -0.00289101 0)
(-0.0047172 0.00276427 -1.70843e-20)
(-0.00323856 0.00439239 1.86047e-20)
(-0.0242633 -0.00247219 3.75847e-21)
(-0.0281782 -0.00210338 -7.21113e-21)
(0.130462 0.00315183 -5.10289e-20)
(-0.00599583 0.0298504 -1.96328e-19)
(-0.0288529 -0.000315494 0)
(-0.0126636 0.0325684 -2.10496e-19)
(-0.00267414 -0.013898 8.90207e-21)
(-0.00779545 0.000413815 3.28407e-20)
(-0.00386202 -0.0126649 1.15858e-19)
(-0.00850801 0.000319715 0)
(0.52002 0.00531612 4.59017e-20)
(-0.00198495 0.0232412 0)
(-0.000541071 -0.00711376 5.58819e-20)
(-0.00446998 0.000117597 -1.70081e-20)
(-0.00190207 -0.0257926 -4.06692e-19)
(-0.00509463 -0.0002672 -2.68229e-20)
(0.474226 0.00612596 -1.67032e-19)
(-0.00088614 0.00789361 -1.02566e-19)
(-0.0496261 0.00332114 0)
(-0.0168284 -0.0258844 1.01432e-19)
(-0.00926131 0.0130883 0)
(-0.0119814 -0.00202645 2.87012e-21)
(-0.0461181 -0.00298848 1.86768e-20)
(-0.0160868 0.0277825 2.66885e-19)
(-0.0062998 -0.0144746 -8.77403e-20)
(-0.00920266 0.000552769 0)
(-0.0192739 0.00106434 0)
(-0.0205279 0.00262201 2.33608e-20)
)
;

boundaryField
{
    frontAndBack
    {
        type            empty;
    }
    fixedWalls
    {
        type            noSlip;
    }
    movingWall
    {
        type            fixedValue;
        value           uniform (1 0 0);
    }
}


// ************************************************************************* //
