/*--------------------------------*- C++ -*----------------------------------*\
| =========                 |                                                 |
| \\      /  F ield         | OpenFOAM: The Open Source CFD Toolbox           |
|  \\    /   O peration     | Version:  5.0                                   |
|   \\  /    A nd           | Web:      www.OpenFOAM.org                      |
|    \\/     M anipulation  |                                                 |
\*---------------------------------------------------------------------------*/
FoamFile
{
    version     2.0;
    format      ascii;
    class       volScalarField;
    location    "2";
    object      epsilon;
}
// * * * * * * * * * * * * * * * * * * * * * * * * * * * * * * * * * * * * * //

dimensions      [0 2 -3 0 0 0 0];

internalField   nonuniform List<scalar> 
400
(
5.56122e-05
0.000121105
0.000173401
0.000205293
0.000224354
0.00023698
0.000247793
0.000259636
0.000273711
0.00029061
0.000312658
0.000346156
0.000399861
0.000479209
0.000584751
0.000638056
0.000652178
0.000519766
0.000242265
0.000117528
0.000127671
0.000132961
0.000173102
0.00020266
0.000224076
0.000241699
0.000258633
0.000276387
0.000296238
0.000321927
0.000362918
0.000436742
0.000567535
0.000771875
0.00102104
0.00123406
0.00132922
0.00133216
0.000918483
0.000571211
0.00022815
0.000176798
0.000205537
0.000235419
0.00025993
0.000281613
0.000302729
0.000324385
0.000350131
0.000391667
0.000473367
0.000630091
0.000887869
0.00122867
0.00159285
0.00192768
0.00216442
0.00225271
0.00208439
0.00160627
0.000313022
0.000219656
0.000240182
0.00026986
0.00029764
0.00032415
0.000351123
0.000381259
0.000422701
0.000495118
0.000631284
0.000863908
0.00119363
0.00156899
0.00192549
0.00225431
0.0025676
0.00272109
0.00273039
0.00254204
0.000380181
0.00025378
0.00026686
0.000295588
0.000325537
0.000356513
0.000390495
0.000431719
0.000490951
0.000590034
0.000759595
0.00102097
0.00135708
0.00171248
0.0020487
0.00238747
0.00272855
0.00295109
0.0030118
0.00302724
0.00043067
0.000279467
0.000286272
0.000313625
0.00034479
0.000379175
0.000419076
0.000469234
0.000539989
0.000650366
0.000825063
0.00107829
0.00139818
0.00173974
0.00207994
0.00245666
0.00286234
0.00318562
0.00331378
0.00344142
0.000466556
0.000297704
0.000299374
0.00032504
0.000356521
0.000392848
0.000436259
0.000490827
0.00056389
0.00066706
0.000821704
0.00105688
0.00136156
0.00169445
0.00205165
0.00248295
0.00301227
0.00346358
0.00364567
0.00378379
0.000490043
0.000309612
0.000307313
0.000330891
0.000361748
0.000398283
0.000442212
0.000496004
0.000563244
0.000656085
0.000793342
0.00099702
0.00127213
0.00159065
0.00196573
0.00246888
0.00314064
0.00377386
0.00400539
0.00405245
0.000503335
0.000316792
0.000311117
0.000332043
0.000361208
0.000396741
0.000439553
0.000491196
0.000553156
0.000628995
0.000734483
0.000898087
0.00113774
0.00143994
0.00182856
0.00239578
0.00321013
0.00411147
0.00447654
0.00428898
0.000508676
0.000320524
0.000311795
0.000330478
0.000358134
0.000391872
0.000432218
0.000479429
0.000532367
0.00059188
0.000668659
0.000790635
0.000987411
0.00126381
0.00165746
0.0022807
0.0032323
0.00440705
0.00498634
0.00446014
0.000507703
0.000321781
0.000310748
0.000326879
0.000352013
0.000383235
0.000420355
0.000462813
0.000508515
0.000555764
0.000609926
0.000693405
0.000842507
0.00108287
0.00146865
0.00213172
0.00321316
0.00463845
0.00552446
0.00459304
0.000504646
0.000321453
0.00030851
0.000322098
0.000344822
0.000373477
0.000407415
0.0004456
0.000485498
0.000524142
0.000562909
0.000617077
0.000720496
0.000916054
0.00127643
0.00194828
0.00311121
0.00476215
0.00606027
0.00467035
0.000499311
0.000320293
0.000305628
0.000317307
0.000338109
0.000364689
0.000396027
0.000430743
0.000466166
0.000498885
0.000528033
0.000562795
0.000631248
0.000779131
0.00109392
0.00173733
0.00293974
0.00480551
0.00655049
0.00470636
0.000496938
0.00031843
0.000303495
0.000314828
0.000335408
0.000361703
0.000392365
0.000425687
0.000458832
0.000488186
0.000511559
0.000533693
0.000577472
0.000684721
0.000942092
0.00151565
0.00270325
0.0047701
0.0068908
0.00471694
0.00049922
0.000317654
0.000304043
0.000316937
0.000339445
0.000367849
0.000400557
0.000435625
0.000470085
0.000500273
0.000523558
0.000542863
0.000575807
0.000654078
0.000857924
0.00136463
0.00247354
0.00464643
0.00702997
0.00471155
0.000509016
0.000319362
0.000310737
0.000330975
0.000362298
0.000400537
0.000443567
0.00048891
0.000533169
0.000572519
0.000603825
0.000628638
0.000660236
0.00073148
0.000907193
0.00134545
0.00237886
0.00458654
0.00701072
0.0046907
0.000536875
0.000332199
0.00034279
0.000390021
0.000453345
0.000527463
0.000609037
0.000694371
0.000778447
0.000857143
0.000925955
0.000987023
0.00104847
0.00114285
0.00132981
0.00174018
0.0026466
0.00471626
0.00653385
0.00462505
0.000607436
0.000390107
0.000486009
0.000641581
0.000827453
0.00103433
0.001255
0.00148271
0.0017049
0.00191933
0.00211328
0.00229861
0.00246901
0.00266845
0.00291889
0.00336039
0.00409562
0.00568321
0.00622239
0.00455079
0.000667053
0.000589418
0.00107808
0.00170474
0.00234252
0.00298962
0.00363308
0.00426903
0.00485303
0.00540904
0.00588416
0.006342
0.00672433
0.00711995
0.00746646
0.00786204
0.00774058
0.00740596
0.00639728
0.0043992
0.000539488
0.000747489
0.00115295
0.00155534
0.00194215
0.00230464
0.00265412
0.00297905
0.00330842
0.00359696
0.00390474
0.00413957
0.00441337
0.00457576
0.00478386
0.00485756
0.00489463
0.00487266
0.00474107
0.00419536
)
;

boundaryField
{
    movingWall
    {
        Cmu             0.09;
        kappa           0.41;
        E               9.8;
        type            epsilonWallFunction;
        value           nonuniform List<scalar> 
20
(
0.000539488
0.000747489
0.00115295
0.00155534
0.00194215
0.00230464
0.00265412
0.00297905
0.00330842
0.00359696
0.00390474
0.00413957
0.00441337
0.00457576
0.00478386
0.00485756
0.00489463
0.00487266
0.00474107
0.00419536
)
;
    }
    fixedWalls
    {
        Cmu             0.09;
        kappa           0.41;
        E               9.8;
        type            epsilonWallFunction;
        value           nonuniform List<scalar> 
60
(
5.56122e-05
0.000127671
0.00022815
0.000313022
0.000380181
0.00043067
0.000466556
0.000490043
0.000503335
0.000508676
0.000507703
0.000504646
0.000499311
0.000496938
0.00049922
0.000509016
0.000536875
0.000607436
0.000667053
0.000539488
0.000117528
0.000571211
0.00160627
0.00254204
0.00302724
0.00344142
0.00378379
0.00405245
0.00428898
0.00446014
0.00459304
0.00467035
0.00470636
0.00471694
0.00471155
0.0046907
0.00462505
0.00455079
0.0043992
0.00419536
5.56122e-05
0.000121105
0.000173401
0.000205293
0.000224354
0.00023698
0.000247793
0.000259636
0.000273711
0.00029061
0.000312658
0.000346156
0.000399861
0.000479209
0.000584751
0.000638056
0.000652178
0.000519766
0.000242265
0.000117528
)
;
    }
    frontAndBack
    {
        type            empty;
    }
}


// ************************************************************************* //
