/*--------------------------------*- C++ -*----------------------------------*\
| =========                 |                                                 |
| \\      /  F ield         | OpenFOAM: The Open Source CFD Toolbox           |
|  \\    /   O peration     | Version:  5.0                                   |
|   \\  /    A nd           | Web:      www.OpenFOAM.org                      |
|    \\/     M anipulation  |                                                 |
\*---------------------------------------------------------------------------*/
FoamFile
{
    version     2.0;
    format      ascii;
    class       volScalarField;
    location    "2";
    object      k;
}
// * * * * * * * * * * * * * * * * * * * * * * * * * * * * * * * * * * * * * //

dimensions      [0 2 -2 0 0 0 0];

internalField   nonuniform List<scalar> 
400
(
1.72008e-05
3.7549e-05
5.37883e-05
6.36845e-05
6.9593e-05
7.35039e-05
7.6858e-05
8.05442e-05
8.49488e-05
9.02943e-05
9.73915e-05
0.000108318
0.000125844
0.000151528
0.000185327
0.000202161
0.000206601
0.00016466
7.66877e-05
3.7136e-05
3.96082e-05
0.000126918
0.000170206
0.000194119
0.000208252
0.000216875
0.000223058
0.000229336
0.000238406
0.000254301
0.000283833
0.000336854
0.000422356
0.000537207
0.000652484
0.000715961
0.000737774
0.000658163
0.000367475
0.000181415
7.09343e-05
0.000213858
0.000281809
0.000321468
0.000347395
0.000365243
0.000377744
0.000386458
0.000394459
0.000409562
0.000446578
0.000525895
0.000660385
0.000830828
0.000986373
0.00107694
0.00111305
0.00108567
0.0007914
0.0005063
9.74262e-05
0.000277928
0.000362288
0.000413232
0.000448276
0.00047354
0.000491074
0.000501634
0.000509106
0.000526094
0.000577555
0.000693492
0.000877365
0.00108162
0.00124794
0.00134558
0.00138447
0.00136713
0.00109949
0.000795691
0.000118399
0.000326256
0.000423018
0.000482707
0.000524926
0.000556154
0.000578018
0.000590782
0.000598968
0.000618864
0.000682818
0.000823591
0.00103076
0.00124383
0.00141543
0.0015232
0.00156622
0.00154843
0.00127734
0.000945771
0.000134163
0.000361406
0.000467639
0.000534249
0.000582101
0.000618023
0.000643493
0.000658241
0.000666555
0.000685863
0.000752707
0.000901917
0.00111719
0.00133763
0.00152693
0.00167015
0.00173311
0.00173294
0.00147152
0.00107504
0.000145356
0.000385576
0.000498792
0.000570815
0.000623087
0.000662682
0.0006911
0.000706944
0.000714258
0.000728897
0.000788594
0.000929783
0.00114114
0.00136711
0.00157303
0.00176649
0.00188238
0.00190501
0.00165995
0.00118117
0.000152667
0.000400824
0.000518845
0.000594895
0.000650531
0.000692978
0.000723841
0.000740353
0.000745896
0.000752499
0.000794994
0.000917598
0.00111905
0.00134631
0.00157386
0.00180657
0.00200682
0.0020732
0.00184312
0.00126493
0.000156786
0.000409085
0.000530101
0.0006089
0.00066695
0.000711552
0.000744445
0.000761895
0.000765412
0.000764765
0.000789771
0.000887496
0.00106647
0.00128904
0.00153564
0.0018135
0.00209871
0.00223398
0.00203941
0.00133845
0.000158412
0.000412071
0.000534681
0.000615069
0.000674612
0.000720695
0.000755096
0.00077439
0.000778271
0.000773092
0.00078084
0.000845432
0.000993154
0.00120537
0.00146882
0.00178987
0.00214161
0.00237181
0.00222627
0.00139167
0.000158068
0.000411189
0.000534148
0.000615203
0.000675693
0.000722983
0.000758937
0.000781014
0.000787512
0.000781403
0.000778948
0.000812378
0.000920497
0.00111373
0.00138587
0.0017424
0.00215358
0.00248144
0.00240306
0.00143304
0.000157071
0.000408802
0.000531752
0.000613003
0.000673859
0.000721895
0.000759191
0.000784367
0.000794811
0.000791214
0.000783608
0.000799148
0.000868678
0.00102922
0.0012977
0.00167495
0.0021306
0.00253767
0.0025605
0.00145701
0.000155357
0.000404813
0.000527319
0.000608708
0.000670319
0.000719947
0.000759648
0.000787962
0.000802921
0.000803548
0.000796844
0.000802761
0.000844816
0.00096618
0.00121155
0.00158795
0.00207133
0.00255564
0.00269383
0.00146817
0.000154573
0.000401437
0.000523959
0.000606334
0.000669612
0.000721063
0.000763227
0.000795634
0.000815591
0.000821762
0.000818399
0.000818854
0.000845176
0.000931946
0.00113282
0.00148436
0.00197348
0.00253371
0.00277505
0.00147143
0.000155263
0.000401247
0.000524464
0.000608459
0.00067415
0.000729163
0.000775983
0.000814081
0.000840843
0.000853856
0.000855018
0.000854391
0.000868219
0.000928521
0.00107957
0.00138236
0.00184908
0.00246512
0.00280428
0.00146967
0.000158284
0.000404699
0.00053128
0.000620306
0.000692506
0.00075524
0.000810756
0.00085838
0.000895623
0.000919709
0.000930218
0.000933109
0.000942207
0.000981312
0.00109196
0.00133704
0.00177345
0.00239284
0.00274636
0.00146318
0.000166943
0.000419905
0.00055667
0.000658986
0.000747186
0.000827709
0.000902252
0.000969847
0.00102783
0.00107345
0.00110472
0.00112454
0.00114192
0.00117805
0.00126188
0.00144485
0.00177996
0.00236273
0.00257448
0.00144273
0.00018892
0.000464684
0.000639617
0.000785144
0.000919899
0.00104799
0.0011701
0.00128492
0.00138869
0.0014801
0.00155531
0.00161806
0.00166971
0.00172795
0.00180703
0.00194536
0.00213598
0.00247478
0.00236877
0.00141956
0.000207713
0.000542195
0.000871451
0.00116667
0.00142665
0.00166316
0.00188029
0.00208099
0.00225751
0.00241699
0.00254953
0.00266906
0.00276499
0.00285334
0.00293234
0.00299166
0.00293165
0.00275739
0.0022873
0.00137225
0.000167964
0.000232861
0.000359359
0.000484909
0.000605588
0.000718655
0.000827678
0.000929001
0.00103172
0.00112165
0.00121765
0.00129079
0.00137616
0.00142679
0.00149182
0.0015149
0.00152664
0.00151982
0.00147879
0.00130855
)
;

boundaryField
{
    movingWall
    {
        type            kqRWallFunction;
        value           nonuniform List<scalar> 
20
(
0.000167964
0.000232861
0.000359359
0.000484909
0.000605588
0.000718655
0.000827678
0.000929001
0.00103172
0.00112165
0.00121765
0.00129079
0.00137616
0.00142679
0.00149182
0.0015149
0.00152664
0.00151982
0.00147879
0.00130855
)
;
    }
    fixedWalls
    {
        type            kqRWallFunction;
        value           nonuniform List<scalar> 
60
(
1.72008e-05
3.96082e-05
7.09343e-05
9.74262e-05
0.000118399
0.000134163
0.000145356
0.000152667
0.000156786
0.000158412
0.000158068
0.000157071
0.000155357
0.000154573
0.000155263
0.000158284
0.000166943
0.00018892
0.000207713
0.000167964
3.7136e-05
0.000181415
0.0005063
0.000795691
0.000945771
0.00107504
0.00118117
0.00126493
0.00133845
0.00139167
0.00143304
0.00145701
0.00146817
0.00147143
0.00146967
0.00146318
0.00144273
0.00141956
0.00137225
0.00130855
1.72008e-05
3.7549e-05
5.37883e-05
6.36845e-05
6.9593e-05
7.35039e-05
7.6858e-05
8.05442e-05
8.49488e-05
9.02943e-05
9.73915e-05
0.000108318
0.000125844
0.000151528
0.000185327
0.000202161
0.000206601
0.00016466
7.66877e-05
3.7136e-05
)
;
    }
    frontAndBack
    {
        type            empty;
    }
}


// ************************************************************************* //
