/*--------------------------------*- C++ -*----------------------------------*\
| =========                 |                                                 |
| \\      /  F ield         | OpenFOAM: The Open Source CFD Toolbox           |
|  \\    /   O peration     | Version:  5.0                                   |
|   \\  /    A nd           | Web:      www.OpenFOAM.org                      |
|    \\/     M anipulation  |                                                 |
\*---------------------------------------------------------------------------*/
FoamFile
{
    version     2.0;
    format      ascii;
    class       volScalarField;
    location    "2";
    object      nut;
}
// * * * * * * * * * * * * * * * * * * * * * * * * * * * * * * * * * * * * * //

dimensions      [0 2 -1 0 0 0 0];

internalField   nonuniform List<scalar> 
400
(
4.78818e-07
1.04779e-06
1.50165e-06
1.77802e-06
1.94286e-06
2.05188e-06
2.14551e-06
2.24877e-06
2.37282e-06
2.52495e-06
2.73033e-06
3.0505e-06
3.56448e-06
4.31225e-06
5.28628e-06
5.76474e-06
5.89033e-06
4.69471e-06
2.18476e-06
1.05607e-06
1.10591e-06
1.09034e-05
1.50622e-05
1.67344e-05
1.74191e-05
1.75141e-05
1.73138e-05
1.71266e-05
1.72678e-05
1.80793e-05
1.99783e-05
2.3383e-05
2.82883e-05
3.36496e-05
3.75268e-05
3.7384e-05
3.68546e-05
2.92652e-05
1.32321e-05
5.18553e-06
1.98489e-06
2.32819e-05
3.47744e-05
3.95073e-05
4.17862e-05
4.26338e-05
4.24213e-05
4.14368e-05
3.99959e-05
3.85447e-05
3.79174e-05
3.95036e-05
4.42067e-05
5.05625e-05
5.4973e-05
5.41493e-05
5.15148e-05
4.70904e-05
2.7043e-05
1.43628e-05
2.7291e-06
3.16493e-05
4.91823e-05
5.69497e-05
6.07634e-05
6.22601e-05
6.18126e-05
5.94014e-05
5.51855e-05
5.03108e-05
4.75559e-05
5.01023e-05
5.80409e-05
6.71073e-05
7.27928e-05
7.22848e-05
6.71866e-05
6.18191e-05
3.98476e-05
2.24155e-05
3.31855e-06
3.77487e-05
6.03501e-05
7.09454e-05
7.61794e-05
7.80832e-05
7.70035e-05
7.27606e-05
6.57676e-05
5.84191e-05
5.52422e-05
5.97934e-05
7.04618e-05
8.13089e-05
8.80121e-05
8.7462e-05
8.09123e-05
7.3121e-05
4.87564e-05
2.65931e-05
3.76151e-06
4.20633e-05
6.87522e-05
8.19066e-05
8.84475e-05
9.06592e-05
8.89276e-05
8.31042e-05
7.40509e-05
6.50968e-05
6.18026e-05
6.78955e-05
8.03408e-05
9.25614e-05
0.000100887
0.00010219
9.44443e-05
8.48432e-05
5.88102e-05
3.02244e-05
4.07574e-06
4.49446e-05
7.47941e-05
9.02186e-05
9.80063e-05
0.000100607
9.85326e-05
9.16398e-05
8.14251e-05
7.16819e-05
6.81137e-05
7.3617e-05
8.60758e-05
9.92707e-05
0.000108547
0.000113109
0.000105867
9.43002e-05
6.80224e-05
3.31851e-05
4.28055e-06
4.67017e-05
7.88381e-05
9.62583e-05
0.000105286
0.000108515
0.000106635
9.94568e-05
8.89002e-05
7.76772e-05
7.16984e-05
7.60052e-05
8.85951e-05
0.000102555
0.00011341
0.000118974
0.000115409
0.000102503
7.63318e-05
3.55352e-05
4.39541e-06
4.75439e-05
8.12901e-05
0.000100494
0.000110834
0.000114855
0.000113474
0.00010636
9.53202e-05
8.36856e-05
7.64298e-05
7.89327e-05
8.997e-05
0.000103856
0.000116068
0.000123547
0.000123488
0.000109246
8.36199e-05
3.75917e-05
4.43993e-06
4.76789e-05
8.25205e-05
0.000103026
0.000114368
0.000119289
0.000118726
0.000112574
0.000102398
9.08807e-05
8.20657e-05
8.13624e-05
8.99037e-05
0.000103467
0.000117148
0.000126421
0.000127706
0.000114882
8.9457e-05
3.90809e-05
4.42915e-06
4.72896e-05
8.26336e-05
0.000104206
0.00011673
0.000122753
0.000123321
0.000118619
0.000109762
9.88786e-05
8.95328e-05
8.56588e-05
9.05137e-05
0.000103091
0.000117699
0.000128176
0.000129907
0.000119475
9.40768e-05
4.02398e-05
4.39996e-06
4.67899e-05
8.24882e-05
0.000104998
0.000118519
0.000125582
0.000127323
0.000124261
0.000117107
0.000107493
9.81754e-05
9.31445e-05
9.42603e-05
0.000104074
0.000118739
0.000129596
0.000131316
0.000121706
9.73646e-05
4.09089e-05
4.35043e-06
4.60473e-05
8.18836e-05
0.000105095
0.000119605
0.000127915
0.000131142
0.000129728
0.000124465
0.000116484
0.000108225
0.000103054
0.000101758
0.000107832
0.000120765
0.000130628
0.00013135
0.000122322
9.97029e-05
4.12203e-05
4.32718e-06
4.55474e-05
8.14116e-05
0.000105098
0.000120314
0.000129371
0.000133616
0.000133838
0.000130477
0.000124494
0.000117836
0.000113074
0.000111328
0.000114159
0.000122595
0.000130834
0.000129664
0.000121123
0.000100581
4.13107e-05
4.34596e-06
4.56155e-05
8.14216e-05
0.000105131
0.0001205
0.000130084
0.000135295
0.00013692
0.000135362
0.000131161
0.000125669
0.000121022
0.000117821
0.000118631
0.000122263
0.000126029
0.000124404
0.000117706
0.000100677
4.12588e-05
4.42983e-06
4.61555e-05
8.17516e-05
0.000104631
0.000119131
0.000128165
0.000133372
0.000135635
0.000135403
0.00013297
0.000128974
0.000124654
0.000121014
0.000118483
0.000118292
0.00011958
0.00011899
0.000112353
9.68266e-05
4.10774e-05
4.67202e-06
4.7769e-05
8.13599e-05
0.000100209
0.000110833
0.000116897
0.000120297
0.000121915
0.00012214
0.000120992
0.00011862
0.00011531
0.000111934
0.000109291
0.000107768
0.000107968
0.00010774
0.00010653
9.12959e-05
4.05038e-05
5.28809e-06
4.98166e-05
7.57596e-05
8.64749e-05
9.20407e-05
9.55645e-05
9.81842e-05
0.000100216
0.000101802
0.000102725
0.00010302
0.00010251
0.000101625
0.000100704
0.000100683
0.000101357
0.000100257
9.69893e-05
8.11578e-05
3.9853e-05
5.82117e-06
4.48881e-05
6.33981e-05
7.18585e-05
7.81977e-05
8.32714e-05
8.75828e-05
9.1296e-05
9.4512e-05
9.72009e-05
9.94209e-05
0.000101096
0.000102324
0.000102914
0.000103647
0.000102455
9.99295e-05
9.23968e-05
7.36029e-05
3.85244e-05
4.70647e-06
6.52876e-06
1.00807e-05
1.36062e-05
1.69947e-05
2.01689e-05
2.32297e-05
2.60734e-05
2.89564e-05
3.14793e-05
3.41737e-05
3.6224e-05
3.86201e-05
4.00405e-05
4.18691e-05
4.25201e-05
4.28546e-05
4.26639e-05
4.15127e-05
3.67328e-05
)
;

boundaryField
{
    movingWall
    {
        type            nutkWallFunction;
        Cmu             0.09;
        kappa           0.41;
        E               9.8;
        value           uniform 0;
    }
    fixedWalls
    {
        type            nutkWallFunction;
        Cmu             0.09;
        kappa           0.41;
        E               9.8;
        value           uniform 0;
    }
    frontAndBack
    {
        type            empty;
    }
}


// ************************************************************************* //
