/*--------------------------------*- C++ -*----------------------------------*\
| =========                 |                                                 |
| \\      /  F ield         | OpenFOAM: The Open Source CFD Toolbox           |
|  \\    /   O peration     | Version:  5.0                                   |
|   \\  /    A nd           | Web:      www.OpenFOAM.org                      |
|    \\/     M anipulation  |                                                 |
\*---------------------------------------------------------------------------*/
FoamFile
{
    version     2.0;
    format      ascii;
    class       volScalarField;
    location    "2";
    object      p;
}
// * * * * * * * * * * * * * * * * * * * * * * * * * * * * * * * * * * * * * //

dimensions      [0 2 -2 0 0 0 0];

internalField   nonuniform List<scalar> 
400
(
2.3958e-08
-1.1459e-05
-1.56231e-05
-1.57653e-05
-1.34969e-05
-9.87678e-06
-5.39482e-06
-3.40357e-07
5.91943e-06
1.7314e-05
4.44932e-05
0.000110721
0.000287911
0.000693425
0.00135723
0.00223659
0.0031989
0.0039554
0.00435879
0.00440639
1.33889e-05
9.97341e-07
-1.61623e-06
1.41008e-06
6.19029e-06
1.0073e-05
1.03017e-05
3.41177e-06
-1.37715e-05
-4.20263e-05
-7.40579e-05
-7.8307e-05
2.62645e-05
0.000348829
0.000937991
0.00179207
0.00277157
0.00362015
0.00414687
0.00434287
1.01161e-05
-1.08702e-05
-1.89582e-05
-1.78455e-05
-1.5966e-05
-1.90625e-05
-3.29706e-05
-6.56885e-05
-0.000126975
-0.000226232
-0.000362458
-0.000498543
-0.000536631
-0.000351706
0.000129893
0.000914592
0.0019049
0.00289637
0.0036656
0.0040519
-2.43933e-05
-5.81566e-05
-7.97958e-05
-8.94933e-05
-0.000100217
-0.000121972
-0.000164329
-0.000239901
-0.000365395
-0.000560826
-0.000833802
-0.00114068
-0.00136214
-0.00134977
-0.0010066
-0.000320812
0.000645628
0.00173888
0.00271201
0.00319483
-9.94747e-05
-0.000146025
-0.000185432
-0.000213506
-0.000246003
-0.000296895
-0.000379363
-0.000510329
-0.000713207
-0.00101834
-0.00144047
-0.00192738
-0.0023382
-0.00249798
-0.00229411
-0.00172126
-0.000827433
0.000271051
0.00132811
0.00184043
-0.000214392
-0.000270272
-0.000326237
-0.000375179
-0.00043373
-0.000518596
-0.000645889
-0.000836275
-0.00111829
-0.00152822
-0.00208519
-0.00272678
-0.00328829
-0.00357992
-0.00349827
-0.00304568
-0.00226816
-0.00125667
-0.000209549
0.0002901
-0.000361028
-0.000421645
-0.00049025
-0.000558599
-0.000642697
-0.000760506
-0.000929924
-0.00117424
-0.00152495
-0.00201503
-0.00266994
-0.00341645
-0.0040767
-0.00445996
-0.00447608
-0.00413492
-0.00348695
-0.0026147
-0.0016958
-0.00119406
-0.000527177
-0.000588242
-0.000664616
-0.00074833
-0.000853755
-0.000998679
-0.00120129
-0.00148538
-0.00188552
-0.00242464
-0.00312419
-0.00391773
-0.00462426
-0.00506012
-0.00514973
-0.00490737
-0.00438673
-0.0036622
-0.0029118
-0.00244297
-0.000699979
-0.000757947
-0.000836993
-0.00093049
-0.00105068
-0.00121408
-0.00143821
-0.00174513
-0.00216369
-0.00271928
-0.00341611
-0.00420028
-0.00490715
-0.00536175
-0.0055004
-0.00534028
-0.00493221
-0.00434517
-0.00376164
-0.00333034
-0.000868018
-0.000920398
-0.000997302
-0.00109441
-0.0012217
-0.00139366
-0.00162616
-0.00193804
-0.00235132
-0.00288859
-0.00354357
-0.00427617
-0.00494631
-0.00539048
-0.00555702
-0.0054617
-0.00514724
-0.00467177
-0.00422658
-0.00383513
-0.00102302
-0.00106791
-0.0011384
-0.00123298
-0.00135961
-0.00153049
-0.00175888
-0.00206079
-0.00245199
-0.00294789
-0.00353898
-0.00418937
-0.004788
-0.00520224
-0.00538064
-0.00533245
-0.00508813
-0.0046818
-0.00434297
-0.00395617
-0.00116016
-0.00119584
-0.00125615
-0.00134235
-0.00146129
-0.00162334
-0.00183736
-0.00211926
-0.00247787
-0.00292078
-0.00343766
-0.00399415
-0.00451078
-0.00488137
-0.005053
-0.00502744
-0.00483053
-0.00442952
-0.00419042
-0.00372657
-0.0012785
-0.00130277
-0.00134923
-0.00142146
-0.00152653
-0.00167286
-0.00186903
-0.00212464
-0.00244614
-0.00283528
-0.00328021
-0.00375045
-0.0041862
-0.00450619
-0.0046565
-0.00462791
-0.00443215
-0.00399577
-0.00386225
-0.00317679
-0.00137961
-0.001391
-0.0014196
-0.00147214
-0.00155814
-0.0016849
-0.00185947
-0.00208821
-0.00237457
-0.00271655
-0.00310111
-0.00350025
-0.0038659
-0.0041343
-0.00425284
-0.00419822
-0.00396978
-0.00345635
-0.00341101
-0.00235328
-0.00147031
-0.00146175
-0.00146736
-0.00149543
-0.00155847
-0.00166335
-0.00181577
-0.00201988
-0.0022766
-0.00258134
-0.00292006
-0.00326597
-0.00357691
-0.00379771
-0.00387679
-0.00377678
-0.00348668
-0.00285705
-0.00283052
-0.00128265
-0.00156356
-0.00152015
-0.00149383
-0.00149031
-0.00152596
-0.00160699
-0.0017378
-0.00192074
-0.00215476
-0.00243319
-0.00274084
-0.00305071
-0.00332302
-0.00350413
-0.00354073
-0.00337581
-0.00298145
-0.00214259
-0.00200577
0.000188552
-0.00168843
-0.00157848
-0.00150119
-0.00145375
-0.00145568
-0.00151044
-0.00162031
-0.00178588
-0.00200464
-0.00226797
-0.00255941
-0.00284911
-0.00309626
-0.00324196
-0.00322744
-0.00295872
-0.00238142
-0.00117474
-0.00063842
0.00299925
-0.00188742
-0.00166076
-0.00150306
-0.0013926
-0.00135931
-0.00139194
-0.00148641
-0.0016409
-0.00185169
-0.00210785
-0.00239237
-0.00267104
-0.00290067
-0.00300483
-0.0029051
-0.00245315
-0.0015926
0.000193994
0.00191956
0.00907965
-0.0022966
-0.00184413
-0.00160017
-0.00144855
-0.00139376
-0.00141474
-0.00150055
-0.00164741
-0.00185127
-0.00209919
-0.0023777
-0.00264404
-0.00286465
-0.00293467
-0.00277865
-0.0021511
-0.000795194
0.00195136
0.00613704
0.018962
-0.00235874
7.87361e-06
0.000157057
6.94822e-05
4.35548e-06
-8.27997e-05
-0.000235649
-0.000454836
-0.000730301
-0.00104726
-0.00138565
-0.0017151
-0.00197025
-0.00207677
-0.00186749
-0.00119592
0.000504399
0.00445256
0.0119176
0.0265583
)
;

boundaryField
{
    movingWall
    {
        type            zeroGradient;
    }
    fixedWalls
    {
        type            zeroGradient;
    }
    frontAndBack
    {
        type            empty;
    }
}


// ************************************************************************* //
