/*--------------------------------*- C++ -*----------------------------------*\
| =========                 |                                                 |
| \\      /  F ield         | OpenFOAM: The Open Source CFD Toolbox           |
|  \\    /   O peration     | Version:  5.0                                   |
|   \\  /    A nd           | Web:      www.OpenFOAM.org                      |
|    \\/     M anipulation  |                                                 |
\*---------------------------------------------------------------------------*/
FoamFile
{
    version     2.0;
    format      ascii;
    class       surfaceScalarField;
    location    "2";
    object      phi;
}
// * * * * * * * * * * * * * * * * * * * * * * * * * * * * * * * * * * * * * //

dimensions      [0 3 -1 0 0 0 0];

internalField   nonuniform List<scalar> 
760
(
-2.44541e-08
2.44518e-08
-1.26276e-07
1.01822e-07
-2.78754e-07
1.52479e-07
-4.58542e-07
1.79788e-07
-6.59451e-07
2.00909e-07
-8.85526e-07
2.26075e-07
-1.14483e-06
2.59308e-07
-1.44565e-06
3.00815e-07
-1.79248e-06
3.46827e-07
-2.1807e-06
3.88223e-07
-2.58824e-06
4.07546e-07
-2.96476e-06
3.76515e-07
-3.23608e-06
2.71325e-07
-3.33369e-06
9.76057e-08
-3.16375e-06
-1.69941e-07
-2.71469e-06
-4.49062e-07
-2.00378e-06
-7.10908e-07
-1.1379e-06
-8.65875e-07
-3.70172e-07
-7.67731e-07
-3.70172e-07
-1.04856e-07
1.29307e-07
-2.87982e-07
2.84947e-07
-5.14693e-07
3.7919e-07
-7.73809e-07
4.38904e-07
-1.0632e-06
4.90299e-07
-1.38527e-06
5.4815e-07
-1.74244e-06
6.16477e-07
-2.13325e-06
6.9162e-07
-2.55033e-06
7.63907e-07
-2.9793e-06
8.17198e-07
-3.39542e-06
8.23666e-07
-3.7581e-06
7.39188e-07
-4.00494e-06
5.18167e-07
-4.05271e-06
1.45373e-07
-3.87438e-06
-3.4827e-07
-3.44234e-06
-8.81097e-07
-2.75759e-06
-1.39566e-06
-1.83055e-06
-1.79291e-06
-7.59134e-07
-1.83915e-06
-1.12931e-06
-1.67066e-07
2.96374e-07
-3.81933e-07
4.99814e-07
-6.21973e-07
6.1923e-07
-8.90574e-07
7.07505e-07
-1.18987e-06
7.89591e-07
-1.52116e-06
8.7944e-07
-1.88447e-06
9.79792e-07
-2.27719e-06
1.08434e-06
-2.69367e-06
1.18038e-06
-3.1242e-06
1.24773e-06
-3.54808e-06
1.24754e-06
-3.91931e-06
1.11042e-06
-4.1645e-06
7.63363e-07
-4.21883e-06
1.99694e-07
-4.07559e-06
-4.91507e-07
-3.71738e-06
-1.2393e-06
-3.12378e-06
-1.98926e-06
-2.28166e-06
-2.63502e-06
-1.17525e-06
-2.94557e-06
-2.30455e-06
-1.95402e-07
4.91775e-07
-4.19716e-07
7.24129e-07
-6.56492e-07
8.56006e-07
-9.14114e-07
9.65127e-07
-1.19762e-06
1.0731e-06
-1.50895e-06
1.19077e-06
-1.84864e-06
1.31948e-06
-2.21664e-06
1.45235e-06
-2.61213e-06
1.57587e-06
-3.02883e-06
1.66443e-06
-3.4409e-06
1.65961e-06
-3.78883e-06
1.45835e-06
-4.00237e-06
9.76903e-07
-4.04465e-06
2.41978e-07
-3.9156e-06
-6.20556e-07
-3.60517e-06
-1.54974e-06
-3.09344e-06
-2.50099e-06
-2.35394e-06
-3.37453e-06
-1.3408e-06
-3.9587e-06
-3.64536e-06
-1.98246e-07
6.90021e-07
-4.16788e-07
9.42671e-07
-6.40277e-07
1.0795e-06
-8.76649e-07
1.2015e-06
-1.13177e-06
1.32822e-06
-1.40846e-06
1.46746e-06
-1.70852e-06
1.61954e-06
-2.03414e-06
1.77797e-06
-2.38649e-06
1.92822e-06
-2.75741e-06
2.03535e-06
-3.11453e-06
2.01673e-06
-3.39668e-06
1.7405e-06
-3.54893e-06
1.12915e-06
-3.5607e-06
2.53747e-07
-3.43611e-06
-7.45148e-07
-3.17153e-06
-1.81432e-06
-2.75108e-06
-2.92144e-06
-2.12832e-06
-3.99729e-06
-1.22691e-06
-4.86011e-06
-4.87227e-06
-1.84487e-07
8.74509e-07
-3.8603e-07
1.14421e-06
-5.88012e-07
1.28148e-06
-7.95854e-07
1.40934e-06
-1.01459e-06
1.54696e-06
-1.24708e-06
1.69994e-06
-1.49536e-06
1.86782e-06
-1.76173e-06
2.04435e-06
-2.04644e-06
2.21292e-06
-2.33812e-06
2.32703e-06
-2.60645e-06
2.28507e-06
-2.80405e-06
1.9381e-06
-2.8999e-06
1.225e-06
-2.8956e-06
2.4945e-07
-2.79287e-06
-8.47878e-07
-2.59097e-06
-2.01622e-06
-2.27241e-06
-3.24e-06
-1.78582e-06
-4.48387e-06
-1.04706e-06
-5.59887e-06
-5.91933e-06
-1.60637e-07
1.03515e-06
-3.37188e-07
1.32076e-06
-5.11493e-07
1.45578e-06
-6.85672e-07
1.58352e-06
-8.62877e-07
1.72416e-06
-1.04498e-06
1.88204e-06
-1.23298e-06
2.05582e-06
-1.42757e-06
2.23893e-06
-1.62894e-06
2.4143e-06
-1.82227e-06
2.52036e-06
-1.99207e-06
2.45487e-06
-2.11303e-06
2.05905e-06
-2.17123e-06
1.28321e-06
-2.16814e-06
2.46361e-07
-2.10382e-06
-9.12201e-07
-1.97927e-06
-2.14077e-06
-1.77872e-06
-3.44056e-06
-1.44771e-06
-4.81488e-06
-8.67545e-07
-6.17903e-06
-6.78687e-06
-1.31169e-07
1.16632e-06
-2.77781e-07
1.46738e-06
-4.20551e-07
1.59855e-06
-5.58189e-07
1.72116e-06
-6.9152e-07
1.85749e-06
-8.20852e-07
2.01138e-06
-9.45739e-07
2.18071e-06
-1.0651e-06
2.3583e-06
-1.17586e-06
2.52506e-06
-1.26754e-06
2.61204e-06
-1.34371e-06
2.53103e-06
-1.39965e-06
2.115e-06
-1.43465e-06
1.31821e-06
-1.44603e-06
2.57739e-07
-1.4304e-06
-9.27827e-07
-1.38514e-06
-2.18603e-06
-1.29298e-06
-3.53271e-06
-1.1007e-06
-5.00717e-06
-7.13931e-07
-6.5658e-06
-7.50081e-06
-9.95793e-08
1.26589e-06
-2.1409e-07
1.58189e-06
-3.2379e-07
1.70825e-06
-4.24331e-07
1.8217e-06
-5.14236e-07
1.9474e-06
-5.92122e-07
2.08926e-06
-6.55955e-07
2.24454e-06
-7.02671e-07
2.40501e-06
-7.27624e-07
2.55001e-06
-7.29766e-07
2.61418e-06
-7.20068e-07
2.52133e-06
-7.1919e-07
2.11412e-06
-7.3837e-07
1.33739e-06
-7.7222e-07
2.9159e-07
-8.12248e-07
-8.878e-07
-8.50419e-07
-2.14786e-06
-8.64339e-07
-3.51879e-06
-7.98714e-07
-5.07279e-06
-5.67448e-07
-6.79706e-06
-8.06825e-06
-6.86614e-08
1.33456e-06
-1.51458e-07
1.66468e-06
-2.28557e-07
1.78535e-06
-2.93311e-07
1.88645e-06
-3.42351e-07
1.99644e-06
-3.72885e-07
2.1198e-06
-3.8167e-07
2.25332e-06
-3.64576e-07
2.38792e-06
-3.17549e-07
2.50298e-06
-2.47249e-07
2.54389e-06
-1.66796e-07
2.44088e-06
-1.16874e-07
2.0642e-06
-1.18514e-07
1.33903e-06
-1.73273e-07
3.46349e-07
-2.68557e-07
-7.92516e-07
-3.88169e-07
-2.02825e-06
-5.01303e-07
-3.40566e-06
-5.49316e-07
-5.02478e-06
-4.50513e-07
-6.89587e-06
-8.51877e-06
-4.08294e-08
1.37539e-06
-9.44505e-08
1.7183e-06
-1.41061e-07
1.83196e-06
-1.72696e-07
1.91809e-06
-1.84695e-07
2.00844e-06
-1.7359e-07
2.10869e-06
-1.35812e-07
2.21554e-06
-6.74873e-08
2.31959e-06
3.44036e-08
2.40109e-06
1.60891e-07
2.4174e-06
2.95231e-07
2.30654e-06
3.91103e-07
1.96832e-06
4.05556e-07
1.32458e-06
3.32872e-07
4.19033e-07
1.89367e-07
-6.49011e-07
-1.29462e-09
-1.83759e-06
-2.02905e-07
-3.20405e-06
-3.46034e-07
-4.88165e-06
-3.60396e-07
-6.8815e-06
-8.87916e-06
-1.84187e-08
1.3938e-06
-4.7163e-08
1.74705e-06
-6.6629e-08
1.85143e-06
-6.85927e-08
1.92005e-06
-4.77523e-08
1.9876e-06
-7.56633e-10
2.0617e-06
7.50453e-08
2.13974e-06
1.82368e-07
2.21227e-06
3.22239e-07
2.26122e-06
4.86224e-07
2.25341e-06
6.54351e-07
2.13841e-06
7.81841e-07
1.84083e-06
8.14991e-07
1.29143e-06
7.35421e-07
4.98603e-07
5.57814e-07
-4.71404e-07
3.12815e-07
-1.59259e-06
4.57352e-08
-2.93697e-06
-1.85617e-07
-4.6503e-06
-2.9464e-07
-6.77248e-06
-9.1738e-06
-4.61207e-09
1.39842e-06
-1.38748e-08
1.75631e-06
-1.00298e-08
1.84758e-06
1.45958e-08
1.89543e-06
6.39943e-08
1.9382e-06
1.41207e-07
1.98448e-06
2.47986e-07
2.03296e-06
3.85045e-07
2.07521e-06
5.50701e-07
2.09556e-06
7.36223e-07
2.06789e-06
9.21288e-07
1.95335e-06
1.06577e-06
1.69635e-06
1.11629e-06
1.24091e-06
1.04199e-06
5.72905e-07
8.49626e-07
-2.79045e-07
5.69133e-07
-1.3121e-06
2.41626e-07
-2.60946e-06
-5.96869e-08
-4.34898e-06
-2.4017e-07
-6.592e-06
-9.41397e-06
-3.82244e-09
1.40224e-06
-7.35622e-10
1.75322e-06
2.31161e-08
1.82373e-06
7.17934e-08
1.84675e-06
1.4815e-07
1.86184e-06
2.53105e-07
1.87953e-06
3.86617e-07
1.89945e-06
5.4738e-07
1.91445e-06
7.31664e-07
1.91128e-06
9.30006e-07
1.86955e-06
1.12304e-06
1.76031e-06
1.27578e-06
1.54361e-06
1.34072e-06
1.17597e-06
1.28144e-06
6.32183e-07
1.09306e-06
-9.06597e-08
7.98525e-07
-1.01756e-06
4.33886e-07
-2.24482e-06
7.36343e-08
-3.98873e-06
-1.62449e-07
-6.35592e-06
-9.57642e-06
-2.00641e-08
1.4223e-06
-1.01036e-08
1.74326e-06
2.99743e-08
1.78365e-06
1.03099e-07
1.77363e-06
2.06753e-07
1.75819e-06
3.39315e-07
1.74697e-06
4.98662e-07
1.7401e-06
6.8154e-07
1.73157e-06
8.82463e-07
1.71036e-06
1.09146e-06
1.66056e-06
1.29073e-06
1.56104e-06
1.45082e-06
1.38352e-06
1.53135e-06
1.09544e-06
1.49557e-06
6.67963e-07
1.32705e-06
7.78663e-08
1.0361e-06
-7.26621e-07
6.51213e-07
-1.85993e-06
2.55415e-07
-3.59293e-06
-1.79576e-08
-6.08254e-06
-9.59438e-06
-5.94858e-08
1.48179e-06
-5.03018e-08
1.73408e-06
1.04266e-08
1.72293e-06
1.12213e-07
1.67184e-06
2.48077e-07
1.62232e-06
4.12554e-07
1.58249e-06
6.01546e-07
1.55111e-06
8.10387e-07
1.52273e-06
1.03241e-06
1.48833e-06
1.25743e-06
1.43554e-06
1.46926e-06
1.34921e-06
1.64367e-06
1.20911e-06
1.74704e-06
9.92067e-07
1.74543e-06
6.69579e-07
1.61175e-06
2.11547e-07
1.34232e-06
-4.57195e-07
9.45674e-07
-1.46329e-06
4.96938e-07
-3.1442e-06
1.22457e-07
-5.70806e-06
-9.47192e-06
-1.64423e-07
1.64621e-06
-1.39428e-07
1.70909e-06
-3.17273e-08
1.61522e-06
1.22877e-07
1.51723e-06
3.07961e-07
1.43724e-06
5.18021e-07
1.37243e-06
7.49245e-07
1.31989e-06
9.96946e-07
1.27503e-06
1.25409e-06
1.23119e-06
1.51107e-06
1.17855e-06
1.75298e-06
1.10731e-06
1.96005e-06
1.00203e-06
2.10264e-06
8.49484e-07
2.15126e-06
6.20953e-07
2.07048e-06
2.92325e-07
1.8404e-06
-2.27112e-07
1.4297e-06
-1.05258e-06
8.88671e-07
-2.60317e-06
3.24548e-07
-5.14394e-06
-9.14737e-06
-3.11124e-07
1.95734e-06
-1.90519e-07
1.58848e-06
3.22031e-08
1.3925e-06
2.84503e-07
1.26493e-06
5.57625e-07
1.16412e-06
8.49401e-07
1.08065e-06
1.15638e-06
1.01291e-06
1.47368e-06
9.57726e-07
1.79415e-06
9.10718e-07
2.10984e-06
8.6286e-07
2.40663e-06
8.10519e-07
2.67036e-06
7.38301e-07
2.87393e-06
6.45914e-07
2.99348e-06
5.01405e-07
2.98374e-06
3.02058e-07
2.83002e-06
-7.3386e-08
2.4014e-06
-6.23967e-07
1.71117e-06
-1.91294e-06
7.72714e-07
-4.20548e-06
-8.37466e-06
-2.28076e-07
2.18541e-06
1.16109e-07
1.2443e-06
5.54298e-07
9.54313e-07
1.00225e-06
8.16983e-07
1.4468e-06
7.1957e-07
1.88822e-06
6.39225e-07
2.32739e-06
5.73743e-07
2.76083e-06
5.24291e-07
3.18374e-06
4.87807e-07
3.59395e-06
4.52651e-07
3.97633e-06
4.28141e-07
4.33118e-06
3.83453e-07
4.62137e-06
3.55722e-07
4.8532e-06
2.6957e-07
4.94211e-06
2.13152e-07
4.85345e-06
1.52746e-08
4.52639e-06
-2.96904e-07
3.73891e-06
-1.12546e-06
2.12218e-06
-2.58876e-06
-6.25247e-06
2.18541e-06
3.42971e-06
4.38402e-06
5.201e-06
5.92057e-06
6.5598e-06
7.13354e-06
7.65783e-06
8.14564e-06
8.59829e-06
9.02643e-06
9.40988e-06
9.7656e-06
1.00352e-05
1.02483e-05
1.02636e-05
9.9667e-06
8.84124e-06
6.25247e-06
)
;

boundaryField
{
    movingWall
    {
        type            calculated;
        value           uniform 0;
    }
    fixedWalls
    {
        type            calculated;
        value           uniform 0;
    }
    frontAndBack
    {
        type            empty;
        value           nonuniform 0();
    }
}


// ************************************************************************* //
