/*--------------------------------*- C++ -*----------------------------------*\
| =========                 |                                                 |
| \\      /  F ield         | OpenFOAM: The Open Source CFD Toolbox           |
|  \\    /   O peration     | Version:  5.0                                   |
|   \\  /    A nd           | Web:      www.OpenFOAM.org                      |
|    \\/     M anipulation  |                                                 |
\*---------------------------------------------------------------------------*/
FoamFile
{
    version     2.0;
    format      ascii;
    class       volVectorField;
    location    "2";
    object      U;
}
// * * * * * * * * * * * * * * * * * * * * * * * * * * * * * * * * * * * * * //

dimensions      [0 1 -1 0 0 0 0];

internalField   nonuniform List<vector> 
400
(
(5.48851e-05 -7.96533e-05 0)
(-0.00112342 0.000608621 0)
(-0.0038853 0.00113022 0)
(-0.00727133 0.00137392 0)
(-0.0110854 0.00153439 0)
(-0.0153276 0.00173916 0)
(-0.020147 0.00205367 0)
(-0.0257328 0.00251868 0)
(-0.0322464 0.00313325 0)
(-0.0397199 0.00381087 0)
(-0.0479504 0.00431459 0)
(-0.0564388 0.0042362 0)
(-0.0634206 0.00328917 0)
(-0.0664867 0.0017584 0)
(-0.0661773 -0.0014407 0)
(-0.0586148 -0.00417795 0)
(-0.0471019 -0.00682733 0)
(-0.0313015 -0.00767642 0)
(-0.0141812 -0.00550806 0)
(-0.00200286 -0.00218171 0)
(-0.000734958 0.00117241 0)
(-0.00364454 0.00370485 0)
(-0.00782057 0.00528393 0)
(-0.0127215 0.00618523 0)
(-0.018212 0.00691595 0)
(-0.0243081 0.00776601 0)
(-0.0310964 0.00882881 0)
(-0.0386084 0.0100639 0)
(-0.0467668 0.0113115 0)
(-0.0553821 0.0122804 0)
(-0.0641517 0.012494 0)
(-0.0724589 0.0112626 0)
(-0.0789447 0.00794392 0)
(-0.0818341 0.00231789 0)
(-0.080252 -0.00539124 0)
(-0.0734022 -0.013627 0)
(-0.0619862 -0.0212051 0)
(-0.0465165 -0.0262849 0)
(-0.026699 -0.024584 0)
(-0.00481286 -0.0117336 0)
(-0.00156483 0.00415187 0)
(-0.00538929 0.00782565 0)
(-0.00985106 0.010013 0)
(-0.0149453 0.0115296 0)
(-0.0206312 0.0128883 0)
(-0.0269265 0.0143867 0)
(-0.033872 0.0160921 0)
(-0.0414522 0.0178911 0)
(-0.0495901 0.0195415 0)
(-0.0581807 0.0206756 0)
(-0.0670561 0.0206593 0)
(-0.075593 0.0184097 0)
(-0.0822132 0.0127129 0)
(-0.0850786 0.00328888 0)
(-0.0837974 -0.00871217 0)
(-0.0784667 -0.0217668 0)
(-0.0685534 -0.0344852 0)
(-0.0546386 -0.0446234 0)
(-0.0355095 -0.0471082 0)
(-0.0112057 -0.031078 0)
(-0.0019714 0.00784986 0)
(-0.00617881 0.0122267 0)
(-0.010617 0.0147585 0)
(-0.0155403 0.0167579 0)
(-0.0209546 0.0186786 0)
(-0.026893 0.0207663 0)
(-0.0333938 0.0230577 0)
(-0.040461 0.0254114 0)
(-0.048095 0.027559 0)
(-0.0563234 0.0290559 0)
(-0.0650417 0.0289658 0)
(-0.0733564 0.0255723 0)
(-0.0793079 0.0172257 0)
(-0.0815857 0.00414291 0)
(-0.0804302 -0.0117173 0)
(-0.0758108 -0.0288378 0)
(-0.0673057 -0.0461187 0)
(-0.0547598 -0.061336 0)
(-0.0369879 -0.0701366 0)
(-0.0162752 -0.0603707 0)
(-0.00204491 0.0118107 0)
(-0.00624677 0.0166918 0)
(-0.0104703 0.0194025 0)
(-0.0150338 0.0217414 0)
(-0.0199472 0.0241144 0)
(-0.0252517 0.0267033 0)
(-0.030999 0.0295209 0)
(-0.0372224 0.0324299 0)
(-0.0439764 0.0351498 0)
(-0.0513411 0.0370779 0)
(-0.0591503 0.0367984 0)
(-0.0662539 0.0319377 0)
(-0.0707934 0.0208731 0)
(-0.072073 0.00474275 0)
(-0.0705713 -0.0141411 0)
(-0.0666074 -0.0344871 0)
(-0.0595523 -0.05543 0)
(-0.0489902 -0.075249 0)
(-0.0332709 -0.0901282 0)
(-0.0159919 -0.087999 0)
(-0.00190859 0.0156553 0)
(-0.00582728 0.0209249 0)
(-0.0096788 0.0236926 0)
(-0.0137398 0.0262204 0)
(-0.0180024 0.0288952 0)
(-0.0224996 0.0318474 0)
(-0.0272827 0.0350734 0)
(-0.0323911 0.0384449 0)
(-0.0378764 0.0416486 0)
(-0.0437937 0.0438572 0)
(-0.0499438 0.0431965 0)
(-0.0552245 0.0368276 0)
(-0.0581684 0.0234159 0)
(-0.0586543 0.0048164 0)
(-0.0572917 -0.0163687 0)
(-0.0541935 -0.0390059 0)
(-0.0489606 -0.0626159 0)
(-0.0408356 -0.0861946 0)
(-0.0278514 -0.105981 0)
(-0.0144634 -0.109733 0)
(-0.00165075 0.0191263 0)
(-0.00509989 0.0247322 0)
(-0.00845738 0.0274812 0)
(-0.0119109 0.0300653 0)
(-0.0154238 0.0328814 0)
(-0.0190054 0.0360269 0)
(-0.0226853 0.039483 0)
(-0.0264828 0.0431205 0)
(-0.030427 0.0465868 0)
(-0.0345181 0.0488421 0)
(-0.0386271 0.0476793 0)
(-0.0420071 0.0400872 0)
(-0.0436982 0.0250251 0)
(-0.0438457 0.00477563 0)
(-0.0429256 -0.0179633 0)
(-0.0409839 -0.0421148 0)
(-0.0377804 -0.067576 0)
(-0.0324642 -0.0940691 0)
(-0.0233043 -0.119474 0)
(-0.0108814 -0.128859 0)
(-0.00132749 0.0220634 0)
(-0.00419658 0.0279854 0)
(-0.00698011 0.0306703 0)
(-0.00976345 0.0331991 0)
(-0.0124771 0.0360017 0)
(-0.0150993 0.0391584 0)
(-0.0176272 0.0426348 0)
(-0.0200452 0.0462939 0)
(-0.0224182 0.0497783 0)
(-0.0244278 0.051731 0)
(-0.0265215 0.0502269 0)
(-0.0281439 0.0419718 0)
(-0.0289169 0.0260655 0)
(-0.0290365 0.0049302 0)
(-0.028801 -0.0186633 0)
(-0.0281597 -0.0436727 0)
(-0.0268945 -0.070282 0)
(-0.0240034 -0.0989342 0)
(-0.0185937 -0.128485 0)
(-0.00892826 -0.144138 0)
(-0.000981663 0.0243836 0)
(-0.00322253 0.0306112 0)
(-0.00539644 0.0332063 0)
(-0.00749029 0.0355888 0)
(-0.00940468 0.0382385 0)
(-0.011086 0.0412322 0)
(-0.0125009 0.0445214 0)
(-0.0136018 0.0479561 0)
(-0.0143799 0.0511472 0)
(-0.0146325 0.0526553 0)
(-0.0147565 0.0509472 0)
(-0.0148105 0.0426295 0)
(-0.0148559 0.0267246 0)
(-0.0151247 0.00547403 0)
(-0.0157279 -0.0183372 0)
(-0.0165259 -0.0436616 0)
(-0.017181 -0.0709357 0)
(-0.0166289 -0.101339 0)
(-0.0145748 -0.134336 0)
(-0.0068674 -0.156506 0)
(-0.000647413 0.0260858 0)
(-0.00226335 0.0325882 0)
(-0.0038346 0.0350765 0)
(-0.00525603 0.0372397 0)
(-0.00640907 0.0396204 0)
(-0.00721502 0.0423028 0)
(-0.00761839 0.0452266 0)
(-0.00754699 0.0482193 0)
(-0.0069161 0.0508658 0)
(-0.00577733 0.0519537 0)
(-0.00425489 0.0500424 0)
(-0.00291095 0.0421697 0)
(-0.00228438 0.0270241 0)
(-0.00271754 0.00643977 0)
(-0.00416836 -0.0169038 0)
(-0.00638605 -0.0419877 0)
(-0.00889691 -0.0695595 0)
(-0.0104516 -0.101386 0)
(-0.0113465 -0.137381 0)
(-0.00536964 -0.166372 0)
(-0.000348601 0.0271834 0)
(-0.00139545 0.0339494 0)
(-0.00240344 0.0363084 0)
(-0.00319857 0.0381961 0)
(-0.00365345 0.040219 0)
(-0.00367613 0.042478 0)
(-0.00320248 0.0449064 0)
(-0.00215775 0.047317 0)
(-0.000465169 0.0492997 0)
(0.00182162 0.0499176 0)
(0.00449832 0.0477987 0)
(0.00689662 0.0407072 0)
(0.00818329 0.0269479 0)
(0.00774333 0.00778216 0)
(0.00559158 -0.0144381 0)
(0.00212247 -0.0387953 0)
(-0.00211927 -0.0663407 0)
(-0.0053549 -0.0993539 0)
(-0.00892639 -0.138007 0)
(-0.00409549 -0.17418 0)
(-0.000110733 0.0277898 0)
(-0.000688131 0.0347643 0)
(-0.0011994 0.0369584 0)
(-0.00143349 0.03852 0)
(-0.00126451 0.0401149 0)
(-0.000603503 0.0418737 0)
(0.000608732 0.043736 0)
(0.00243078 0.0455106 0)
(0.00490336 0.0468182 0)
(0.0079558 0.0469161 0)
(0.0113575 0.0446757 0)
(0.0144539 0.0383581 0)
(0.0162804 0.0264398 0)
(0.0159878 0.00934676 0)
(0.0134111 -0.0111656 0)
(0.00902574 -0.0343643 0)
(0.0033454 -0.0615628 0)
(-0.00104002 -0.0955038 0)
(-0.00728468 -0.136706 0)
(-0.00281807 -0.180622 0)
(1.37619e-05 0.0279905 0)
(-0.000219441 0.0351274 0)
(-0.000316869 0.0371117 0)
(-6.03833e-05 0.0382844 0)
(0.000662476 0.0394 0)
(0.00192536 0.0406137 0)
(0.00375949 0.0418833 0)
(0.00619292 0.0430276 0)
(0.00922566 0.0437094 0)
(0.0127636 0.0433421 0)
(0.0165582 0.0410416 0)
(0.0200176 0.0355152 0)
(0.0221956 0.0255103 0)
(0.0221369 0.0108828 0)
(0.0194693 -0.00742332 0)
(0.0145688 -0.0290472 0)
(0.00790616 -0.0555678 0)
(0.00293237 -0.0901591 0)
(-0.00622795 -0.133872 0)
(-0.00122624 -0.185845 0)
(5.40679e-06 0.0280889 0)
(-0.00014213 0.0351542 0)
(0.000126834 0.0367875 0)
(0.000828654 0.0375395 0)
(0.00207189 0.0381354 0)
(0.00388336 0.0387809 0)
(0.0062684 0.0394621 0)
(0.00921491 0.0400228 0)
(0.012679 0.0401738 0)
(0.0165412 0.0394552 0)
(0.0205428 0.0371983 0)
(0.0241617 0.0324658 0)
(0.0265547 0.024277 0)
(0.026788 0.0121986 0)
(0.0243332 -0.00358886 0)
(0.0193782 -0.0232611 0)
(0.0121248 -0.0486158 0)
(0.00701695 -0.0835724 0)
(-0.00541502 -0.129853 0)
(0.00131245 -0.19039 0)
(-0.00028673 0.0282566 0)
(-0.000435745 0.0350042 0)
(5.6115e-05 0.0361634 0)
(0.00118773 0.0363186 0)
(0.00296274 0.0363282 0)
(0.00533187 0.0363933 0)
(0.00825963 0.0365137 0)
(0.0116943 0.0365595 0)
(0.0155536 0.0362895 0)
(0.019693 0.0353459 0)
(0.0238558 0.0332384 0)
(0.0275878 0.0293023 0)
(0.0301835 0.0227886 0)
(0.030807 0.0131327 0)
(0.02882 1.19203e-05 0)
(0.024196 -0.0173819 0)
(0.0166484 -0.04118 0)
(0.0117976 -0.0762401 0)
(-0.00444105 -0.125024 0)
(0.00516787 -0.194331 0)
(-0.000762146 0.0290876 0)
(-0.00138938 0.0348212 0)
(-0.000597796 0.0352026 0)
(0.00104556 0.0346225 0)
(0.00346132 0.0339796 0)
(0.00648222 0.0334634 0)
(0.0100321 0.0330693 0)
(0.0140286 0.0326841 0)
(0.0183634 0.0321081 0)
(0.0228747 0.0310611 0)
(0.0273106 0.0291877 0)
(0.0312844 0.0260174 0)
(0.0342116 0.0209955 0)
(0.0354035 0.0135346 0)
(0.034126 0.00303471 0)
(0.0301925 -0.0118422 0)
(0.022614 -0.0335441 0)
(0.0183476 -0.0681397 0)
(-0.0029041 -0.119929 0)
(0.0108864 -0.197136 0)
(-0.00234133 0.0307577 0)
(-0.00366347 0.0347298 0)
(-0.00194393 0.033779 0)
(0.000751346 0.0322638 0)
(0.00418007 0.0309621 0)
(0.00814867 0.0299167 0)
(0.0125772 0.0290768 0)
(0.0173845 0.0283373 0)
(0.0224584 0.0275384 0)
(0.0276353 0.0264636 0)
(0.0326733 0.0248634 0)
(0.0372523 0.0223995 0)
(0.0408591 0.0187103 0)
(0.0429393 0.0132206 0)
(0.0426311 0.0052934 0)
(0.0398916 -0.00675017 0)
(0.0323334 -0.0254184 0)
(0.0288378 -0.0583455 0)
(-0.000132972 -0.111796 0)
(0.0193684 -0.194672 0)
(-0.0052124 0.0365664 0)
(-0.00611385 0.0342455 0)
(-0.00163222 0.0314377 0)
(0.00301277 0.0291563 0)
(0.00830189 0.0272797 0)
(0.0139818 0.0257356 0)
(0.0199882 0.0244651 0)
(0.0262527 0.0233909 0)
(0.0326438 0.0224059 0)
(0.0390394 0.0213354 0)
(0.045182 0.0200517 0)
(0.0508607 0.0182648 0)
(0.0555553 0.0158517 0)
(0.0589767 0.0122272 0)
(0.0599836 0.00708446 0)
(0.0590418 -0.00152884 0)
(0.0518229 -0.015874 0)
(0.0480666 -0.0456521 0)
(0.00913718 -0.096477 0)
(0.0348901 -0.175937 0)
(-0.00518017 0.0380465 0)
(-0.00243417 0.0228461 0)
(0.00669336 0.0186569 0)
(0.0154979 0.0165913 0)
(0.0244548 0.0148457 0)
(0.0333501 0.013312 0)
(0.0421612 0.0121099 0)
(0.0509146 0.0112059 0)
(0.059451 0.0105275 0)
(0.0678281 0.00989846 0)
(0.0756896 0.00928075 0)
(0.0831698 0.00841231 0)
(0.0894889 0.00731882 0)
(0.0949228 0.00548835 0)
(0.0978609 0.00303304 0)
(0.0984981 -0.00240132 0)
(0.0927122 -0.0106409 0)
(0.0881261 -0.0323349 0)
(0.0440407 -0.0708025 0)
(0.0684355 -0.133264 0)
(0.0470005 0.0516298 0)
(0.0522749 0.0353421 0)
(0.0760733 0.026874 0)
(0.096597 0.0224079 0)
(0.1121 0.0196067 0)
(0.125355 0.0174664 0)
(0.137082 0.0156422 0)
(0.148168 0.0142113 0)
(0.157986 0.0131258 0)
(0.167636 0.0120564 0)
(0.175961 0.0114643 0)
(0.184341 0.0102319 0)
(0.191156 0.0100272 0)
(0.197623 0.00795676 0)
(0.202177 0.00792405 0)
(0.204716 0.00373948 0)
(0.201701 0.00136965 0)
(0.192428 -0.00630119 0)
(0.149397 -0.0180219 0)
(0.142775 -0.0976753 0)
)
;

boundaryField
{
    movingWall
    {
        type            fixedValue;
        value           uniform (1 0 0);
    }
    fixedWalls
    {
        type            noSlip;
    }
    frontAndBack
    {
        type            empty;
    }
}


// ************************************************************************* //
