/*--------------------------------*- C++ -*----------------------------------*\
  =========                 |
  \\      /  F ield         | OpenFOAM: The Open Source CFD Toolbox
   \\    /   O peration     | Website:  https://openfoam.org
    \\  /    A nd           | Version:  6
     \\/     M anipulation  |
\*---------------------------------------------------------------------------*/
FoamFile
{
    version     2.0;
    format      ascii;
    class       volVectorField;
    location    "0.4";
    object      wallShearStress;
}
// * * * * * * * * * * * * * * * * * * * * * * * * * * * * * * * * * * * * * //

dimensions      [0 2 -2 0 0 0 0];

internalField   uniform (0 0 0);

boundaryField
{
    movingWall
    {
        type            calculated;
        value           nonuniform List<vector> 
20
(
(3.07073 -1.24291 0)
(2.34097 -0.850378 0)
(1.68671 -0.590536 0)
(1.25172 -0.357727 0)
(0.995897 -0.21179 0)
(0.834965 -0.129262 0)
(0.728289 -0.0805314 0)
(0.657959 -0.0494664 0)
(0.614066 -0.0278553 0)
(0.590956 -0.011037 0)
(0.585939 0.00398189 0)
(0.598596 0.0196273 0)
(0.630756 0.0387174 0)
(0.687201 0.0656787 0)
(0.77728 0.108711 0)
(0.918709 0.18505 0)
(1.15292 0.329571 0)
(1.57604 0.575653 0)
(2.25606 0.863697 0)
(3.03748 1.28017 0)
)
;
    }
    fixedWalls
    {
        type            calculated;
        value           nonuniform List<vector> 
60
(
(-0.00162228 0.000825444 0)
(0.00131985 0.00145669 0)
(0.00526991 -0.00351473 0)
(0.00883216 -0.0131691 0)
(0.0120086 -0.0268343 0)
(0.0150101 -0.0442059 0)
(0.0180442 -0.0652222 0)
(0.0212992 -0.0900168 0)
(0.0249669 -0.118892 0)
(0.0293015 -0.152321 0)
(0.0347281 -0.191018 0)
(0.0420349 -0.236107 0)
(0.0527015 -0.28949 0)
(0.0693951 -0.354529 0)
(0.0965274 -0.437256 0)
(0.140083 -0.549013 0)
(0.200419 -0.714659 0)
(0.222079 -0.989457 0)
(-0.111485 -1.45469 0)
(-1.88791 -2.27333 0)
(-0.00174706 -0.000824046 0)
(0.00104578 -0.00165211 0)
(0.00486236 0.00297531 0)
(0.00831901 0.0121725 0)
(0.0114533 0.0253186 0)
(0.0145427 0.042222 0)
(0.0178815 0.0630245 0)
(0.0217587 0.0881658 0)
(0.0264779 0.118366 0)
(0.0324118 0.15463 0)
(0.0401021 0.198302 0)
(0.0504342 0.251207 0)
(0.0649272 0.315954 0)
(0.0861096 0.396499 0)
(0.117752 0.499084 0)
(0.163775 0.634507 0)
(0.218105 0.825548 0)
(0.209623 1.11583 0)
(-0.18395 1.53503 0)
(-1.95155 2.26717 0)
(-0.000871701 0.00159118 0)
(-0.00137498 -0.00155636 0)
(0.00393351 -0.00543973 0)
(0.013443 -0.00820444 0)
(0.0253349 -0.0095884 0)
(0.037969 -0.00969845 0)
(0.0499179 -0.00873585 0)
(0.0600087 -0.00692699 0)
(0.0673406 -0.00449601 0)
(0.0712804 -0.00166291 0)
(0.0714691 0.00134599 0)
(0.0678377 0.00428747 0)
(0.0606327 0.00689526 0)
(0.0504416 0.00888196 0)
(0.0382091 0.00995191 0)
(0.0252289 0.00983099 0)
(0.0130846 0.00831985 0)
(0.00353741 0.00537893 0)
(-0.00159982 0.00139236 0)
(-0.000896826 -0.00170212 0)
)
;
    }
    frontAndBack
    {
        type            empty;
    }
}


// ************************************************************************* //
