/*--------------------------------*- C++ -*----------------------------------*\
  =========                 |
  \\      /  F ield         | OpenFOAM: The Open Source CFD Toolbox
   \\    /   O peration     | Website:  https://openfoam.org
    \\  /    A nd           | Version:  6
     \\/     M anipulation  |
\*---------------------------------------------------------------------------*/
FoamFile
{
    version     2.0;
    format      ascii;
    class       volScalarField;
    location    "0.4";
    object      Co;
}
// * * * * * * * * * * * * * * * * * * * * * * * * * * * * * * * * * * * * * //

dimensions      [0 0 0 0 0 0 0];

internalField   nonuniform List<scalar> 
400
(
0.000285077
0.000728174
0.00228532
0.00491028
0.00792263
0.0109482
0.0136648
0.0158143
0.0172053
0.017714
0.017714
0.0172876
0.0159489
0.0138027
0.0110403
0.00793955
0.00485538
0.00219454
0.000681133
0.000313651
0.000683803
0.00433576
0.0105219
0.0179148
0.0256588
0.0329737
0.0391877
0.0437653
0.0463221
0.0466354
0.0465531
0.0464224
0.0440124
0.0394922
0.0332252
0.0257682
0.0178524
0.0103354
0.00413506
0.000615276
0.00224378
0.0107928
0.022207
0.0346069
0.0466666
0.0573131
0.0656941
0.07118
0.0733659
0.0720822
0.0718474
0.0734354
0.071535
0.0662162
0.0578224
0.0469867
0.0346364
0.0219734
0.0104601
0.0020492
0.00514865
0.0194579
0.0367009
0.0542678
0.0703858
0.083749
0.0934214
0.0987916
0.0995473
0.0956702
0.0952159
0.0995971
0.0993498
0.0943301
0.0847316
0.0711371
0.0545696
0.0365256
0.0190166
0.00483619
0.00902136
0.0302545
0.0539054
0.0767819
0.0967472
0.11234
0.122626
0.127099
0.12562
0.118384
0.117582
0.125659
0.128012
0.124197
0.114156
0.0983126
0.0776918
0.0540173
0.0298012
0.00859213
0.0138207
0.0431904
0.073873
0.102213
0.125821
0.143189
0.15348
0.156383
0.151997
0.140777
0.13939
0.15198
0.157813
0.156072
0.146343
0.128775
0.104272
0.0746806
0.0429405
0.0133164
0.0195563
0.0583348
0.0967098
0.130648
0.157642
0.176271
0.185929
0.186601
0.178697
0.162964
0.160597
0.178469
0.188666
0.189934
0.181389
0.16275
0.134632
0.0988494
0.0586698
0.019083
0.0262838
0.0758091
0.122531
0.16211
0.192078
0.211295
0.219555
0.217271
0.205245
0.184548
0.180626
0.204486
0.219968
0.225316
0.21905
0.20026
0.169028
0.1269
0.0773218
0.0260384
0.034104
0.0957824
0.151426
0.196471
0.228717
0.24756
0.253424
0.247321
0.230543
0.204517
0.198285
0.228721
0.250427
0.261106
0.25854
0.24094
0.207516
0.159186
0.0993132
0.0344022
0.0431746
0.11848
0.183429
0.233377
0.266727
0.283781
0.285903
0.274914
0.252712
0.221101
0.211662
0.249039
0.277867
0.295308
0.298276
0.283807
0.249784
0.195953
0.12513
0.0444765
0.0537433
0.144207
0.218479
0.272115
0.304666
0.317872
0.314433
0.297232
0.268888
0.231592
0.218021
0.262324
0.299008
0.324766
0.335558
0.326944
0.294901
0.2372
0.155307
0.0566737
0.066219
0.173393
0.256328
0.311396
0.340185
0.34662
0.335235
0.310229
0.275022
0.232166
0.213698
0.264337
0.309256
0.344854
0.366174
0.367058
0.340922
0.282448
0.190394
0.0715732
0.0813022
0.206611
0.296326
0.348941
0.369538
0.365236
0.342942
0.308356
0.265686
0.217732
0.194048
0.249647
0.302546
0.349186
0.383937
0.398881
0.384277
0.330306
0.230842
0.0900253
0.100204
0.244504
0.336862
0.380666
0.386765
0.366703
0.330173
0.284342
0.233981
0.1819
0.153483
0.211695
0.271359
0.329451
0.380226
0.41439
0.418803
0.377643
0.276698
0.113311
0.124935
0.287267
0.374047
0.399131
0.382394
0.340917
0.287116
0.229108
0.171665
0.117177
0.0856439
0.143113
0.207028
0.275522
0.343674
0.40189
0.434252
0.417994
0.326734
0.143294
0.158361
0.332778
0.398682
0.390741
0.341552
0.273774
0.201372
0.136497
0.092493
0.0584838
0.030415
0.0693129
0.111396
0.176147
0.26034
0.345188
0.41419
0.438564
0.376055
0.182131
0.202818
0.371076
0.389968
0.331297
0.25978
0.227884
0.224529
0.21899
0.207907
0.188493
0.167987
0.19526
0.213882
0.22633
0.236028
0.26059
0.333491
0.415047
0.410342
0.230172
0.253738
0.370176
0.318244
0.284154
0.304379
0.327458
0.347805
0.361804
0.367156
0.362198
0.351388
0.365798
0.369253
0.363071
0.349287
0.33156
0.316006
0.341924
0.393335
0.278726
0.270519
0.319256
0.341703
0.400676
0.457572
0.504583
0.540386
0.56526
0.579754
0.58418
0.581535
0.585045
0.578279
0.560827
0.531842
0.490608
0.438152
0.381899
0.344783
0.282495
0.270518
0.491592
0.627357
0.712146
0.766532
0.801924
0.825065
0.839866
0.848512
0.852136
0.852136
0.851158
0.845384
0.83391
0.814752
0.784043
0.734497
0.652668
0.514196
0.282494
)
;

boundaryField
{
    movingWall
    {
        type            zeroGradient;
    }
    fixedWalls
    {
        type            zeroGradient;
    }
    frontAndBack
    {
        type            empty;
    }
}


// ************************************************************************* //
