/*--------------------------------*- C++ -*----------------------------------*\
| =========                 |                                                 |
| \\      /  F ield         | OpenFOAM: The Open Source CFD Toolbox           |
|  \\    /   O peration     | Version:  5.0                                   |
|   \\  /    A nd           | Web:      www.OpenFOAM.org                      |
|    \\/     M anipulation  |                                                 |
\*---------------------------------------------------------------------------*/
FoamFile
{
    version     2.0;
    format      ascii;
    class       volScalarField;
    location    "8.5";
    object      k;
}
// * * * * * * * * * * * * * * * * * * * * * * * * * * * * * * * * * * * * * //

dimensions      [0 2 -2 0 0 0 0];

internalField   nonuniform List<scalar> 
400
(
5.03468e-10
2.04802e-09
1.41184e-08
8.19886e-08
2.28613e-07
4.04003e-07
5.71345e-07
7.28062e-07
8.70243e-07
1.01326e-06
1.15479e-06
1.32975e-06
1.53132e-06
1.62237e-06
1.62759e-06
1.42556e-06
9.62419e-07
5.32164e-07
2.6969e-07
1.27814e-07
6.0015e-09
5.91179e-08
2.00528e-07
6.20544e-07
1.63409e-06
3.58562e-06
6.40774e-06
9.86924e-06
1.30825e-05
1.62504e-05
1.82242e-05
1.93195e-05
1.96233e-05
1.86122e-05
1.62612e-05
1.30442e-05
8.13132e-06
3.57917e-06
1.42359e-06
4.89211e-07
5.00998e-08
3.44626e-07
1.04862e-06
3.13083e-06
8.61741e-06
1.9122e-05
3.54946e-05
5.57503e-05
7.15482e-05
8.16697e-05
8.61649e-05
8.74514e-05
8.26714e-05
7.52885e-05
6.41043e-05
5.08009e-05
3.29405e-05
1.3314e-05
4.18221e-06
9.58996e-07
1.58057e-07
1.06353e-06
3.44616e-06
1.09982e-05
3.15395e-05
6.84207e-05
0.000104777
0.000123289
0.00013467
0.000139077
0.000140144
0.000137624
0.000132284
0.000127377
0.000119422
0.000108629
8.63856e-05
3.85065e-05
1.00718e-05
1.39961e-06
3.2014e-07
2.4651e-06
9.15212e-06
2.98958e-05
6.95924e-05
0.000107763
0.000126157
0.00013451
0.000138467
0.00013957
0.000139777
0.000138365
0.000137714
0.000136747
0.00013514
0.000131674
0.00012232
7.67115e-05
1.899e-05
1.79971e-06
6.60803e-07
5.41627e-06
1.80604e-05
4.83373e-05
9.42561e-05
0.000116541
0.000125506
0.000128454
0.000125752
0.000119867
0.000117649
0.000119531
0.00012799
0.000134878
0.00013801
0.000138517
0.0001374
0.00010364
3.02481e-05
2.14324e-06
9.18198e-07
7.55922e-06
2.48561e-05
6.36551e-05
0.00010249
0.000115254
0.000118405
0.000107583
9.20234e-05
8.4684e-05
8.24774e-05
8.63999e-05
0.000100383
0.000119603
0.000134803
0.000139523
0.000141264
0.000116746
4.14529e-05
2.41635e-06
9.63517e-07
9.50426e-06
3.00685e-05
7.19005e-05
0.000102822
0.000110295
0.000102192
8.23696e-05
6.89304e-05
6.37647e-05
6.26862e-05
6.86944e-05
8.19011e-05
0.000101474
0.000126229
0.000136359
0.000141117
0.000122695
5.23863e-05
2.63377e-06
9.02366e-07
9.79088e-06
3.14674e-05
7.59626e-05
0.00010143
0.000102186
8.77655e-05
6.71681e-05
5.73738e-05
5.43333e-05
5.43717e-05
6.10361e-05
7.34738e-05
9.22713e-05
0.000118022
0.000132473
0.000132923
0.000124493
5.88188e-05
2.78353e-06
7.21966e-07
9.44263e-06
3.07225e-05
7.49391e-05
9.88944e-05
9.67177e-05
8.04241e-05
6.40297e-05
5.52837e-05
5.25703e-05
5.30013e-05
5.88166e-05
7.05443e-05
8.82658e-05
0.000107236
0.000130848
0.000126173
0.000124558
6.38736e-05
2.93602e-06
5.60138e-07
8.49077e-06
2.84906e-05
7.16511e-05
9.52337e-05
9.19062e-05
7.91969e-05
6.51184e-05
5.67051e-05
5.45062e-05
5.68147e-05
6.23665e-05
7.12244e-05
8.74587e-05
0.000102152
0.000127116
0.000117887
0.000119751
6.59547e-05
3.05548e-06
4.33372e-07
6.80486e-06
2.3808e-05
6.41172e-05
9.02983e-05
8.90038e-05
8.02746e-05
6.85619e-05
6.14622e-05
6.09488e-05
6.35083e-05
6.88951e-05
7.6119e-05
8.99691e-05
0.000100517
0.000119447
0.000111461
0.000117336
6.65174e-05
3.21365e-06
3.21234e-07
4.81768e-06
1.80984e-05
5.31584e-05
8.22103e-05
8.38609e-05
8.00359e-05
7.30879e-05
6.90455e-05
6.94454e-05
7.15325e-05
7.61929e-05
8.16586e-05
9.26847e-05
0.000100363
0.000114586
0.000105916
0.000110633
6.36959e-05
3.38417e-06
2.1731e-07
2.97843e-06
1.21206e-05
3.85062e-05
7.11265e-05
7.86343e-05
7.78454e-05
7.44958e-05
7.32146e-05
7.40031e-05
7.63522e-05
8.18474e-05
8.67685e-05
9.53958e-05
0.000100431
0.000107375
9.96944e-05
0.000105144
5.77486e-05
3.5359e-06
1.23446e-07
1.56388e-06
7.06926e-06
2.22676e-05
5.32506e-05
6.9172e-05
7.26347e-05
7.2728e-05
7.31613e-05
7.56462e-05
7.89111e-05
8.54319e-05
8.98388e-05
9.6494e-05
0.000100139
0.00010274
9.45262e-05
9.4617e-05
4.98917e-05
3.56177e-06
5.18963e-08
7.06728e-07
3.50947e-06
1.13288e-05
3.13535e-05
4.91588e-05
6.05932e-05
6.58394e-05
6.84017e-05
7.37461e-05
7.75663e-05
8.52335e-05
9.00512e-05
9.53665e-05
9.51391e-05
9.28229e-05
8.23015e-05
8.05693e-05
4.00847e-05
3.30106e-06
1.55762e-08
3.08408e-07
1.57199e-06
5.02334e-06
1.33844e-05
2.77098e-05
3.61902e-05
4.58235e-05
5.12419e-05
5.81613e-05
6.45381e-05
6.92918e-05
7.55791e-05
7.66195e-05
7.473e-05
6.86598e-05
6.26004e-05
6.14561e-05
2.88064e-05
2.83642e-06
9.16186e-09
1.43055e-07
6.69151e-07
2.03747e-06
4.93426e-06
1.12318e-05
1.71443e-05
2.13299e-05
2.60181e-05
2.77877e-05
3.14775e-05
3.26507e-05
3.46217e-05
3.51764e-05
3.65546e-05
3.91406e-05
4.69706e-05
4.45041e-05
1.88831e-05
2.23451e-06
2.53674e-08
1.43647e-07
4.76068e-07
1.0419e-06
2.25614e-06
3.72067e-06
6.71491e-06
7.98211e-06
1.06063e-05
1.18007e-05
1.44192e-05
1.60113e-05
1.9653e-05
2.22885e-05
2.82266e-05
3.36306e-05
4.24882e-05
3.3916e-05
9.75342e-06
1.39446e-06
9.72903e-09
2.30517e-08
5.88192e-08
1.18326e-07
2.66163e-07
3.88002e-07
6.90963e-07
8.02663e-07
1.04008e-06
1.10751e-06
1.25791e-06
1.29578e-06
1.40167e-06
1.41166e-06
1.48074e-06
1.44061e-06
1.46561e-06
1.44381e-06
1.29159e-06
8.44575e-07
)
;

boundaryField
{
    movingWall
    {
        type            kqRWallFunction;
        value           nonuniform List<scalar> 
20
(
9.72903e-09
2.30517e-08
5.88192e-08
1.18326e-07
2.66163e-07
3.88002e-07
6.90963e-07
8.02663e-07
1.04008e-06
1.10751e-06
1.25791e-06
1.29578e-06
1.40167e-06
1.41166e-06
1.48074e-06
1.44061e-06
1.46561e-06
1.44381e-06
1.29159e-06
8.44575e-07
)
;
    }
    fixedWalls
    {
        type            kqRWallFunction;
        value           nonuniform List<scalar> 
60
(
5.03468e-10
6.0015e-09
5.00998e-08
1.58057e-07
3.2014e-07
6.60803e-07
9.18198e-07
9.63517e-07
9.02366e-07
7.21966e-07
5.60138e-07
4.33372e-07
3.21234e-07
2.1731e-07
1.23446e-07
5.18963e-08
1.55762e-08
9.16186e-09
2.53674e-08
9.72903e-09
1.27814e-07
4.89211e-07
9.58996e-07
1.39961e-06
1.79971e-06
2.14324e-06
2.41635e-06
2.63377e-06
2.78353e-06
2.93602e-06
3.05548e-06
3.21365e-06
3.38417e-06
3.5359e-06
3.56177e-06
3.30106e-06
2.83642e-06
2.23451e-06
1.39446e-06
8.44575e-07
5.03468e-10
2.04802e-09
1.41184e-08
8.19886e-08
2.28613e-07
4.04003e-07
5.71345e-07
7.28062e-07
8.70243e-07
1.01326e-06
1.15479e-06
1.32975e-06
1.53132e-06
1.62237e-06
1.62759e-06
1.42556e-06
9.62419e-07
5.32164e-07
2.6969e-07
1.27814e-07
)
;
    }
    frontAndBack
    {
        type            empty;
    }
}


// ************************************************************************* //
