/*--------------------------------*- C++ -*----------------------------------*\
| =========                 |                                                 |
| \\      /  F ield         | OpenFOAM: The Open Source CFD Toolbox           |
|  \\    /   O peration     | Version:  5.0                                   |
|   \\  /    A nd           | Web:      www.OpenFOAM.org                      |
|    \\/     M anipulation  |                                                 |
\*---------------------------------------------------------------------------*/
FoamFile
{
    version     2.0;
    format      ascii;
    class       volScalarField;
    location    "8.5";
    object      nut;
}
// * * * * * * * * * * * * * * * * * * * * * * * * * * * * * * * * * * * * * //

dimensions      [0 2 -1 0 0 0 0];

internalField   nonuniform List<scalar> 
400
(
3.93334e-12
1.60002e-11
1.103e-10
6.40536e-10
1.78604e-09
3.15628e-09
4.46363e-09
5.68798e-09
6.79878e-09
7.9161e-09
9.02183e-09
1.03887e-08
1.19634e-08
1.26747e-08
1.27155e-08
1.11372e-08
7.5189e-09
4.15753e-09
2.10696e-09
9.98547e-10
4.68867e-11
1.06463e-09
2.56001e-09
7.32632e-09
2.06734e-08
5.33839e-08
1.11334e-07
2.07344e-07
3.10281e-07
4.40028e-07
5.25551e-07
5.73115e-07
5.67071e-07
5.03454e-07
4.06522e-07
2.89832e-07
1.53147e-07
5.39656e-08
1.55021e-08
3.82196e-09
3.91405e-10
6.48946e-09
1.78608e-08
5.62868e-08
2.02451e-07
5.61801e-07
1.28629e-06
2.29677e-06
3.21284e-06
3.83238e-06
4.11408e-06
4.18615e-06
3.80383e-06
3.27406e-06
2.49556e-06
1.6806e-06
8.54299e-07
2.48644e-07
4.97288e-08
7.49215e-09
1.23482e-09
2.20763e-08
7.45783e-08
2.95479e-07
1.19852e-06
3.22213e-06
6.07316e-06
8.04316e-06
9.88523e-06
1.08447e-05
1.12879e-05
1.118e-05
1.0386e-05
9.21254e-06
7.55076e-06
5.57935e-06
3.27101e-06
9.61806e-07
1.37996e-07
1.09344e-08
2.50109e-09
5.77983e-08
2.48884e-07
1.14376e-06
3.81372e-06
7.39931e-06
1.10474e-05
1.35845e-05
1.61076e-05
1.74061e-05
1.79801e-05
1.78601e-05
1.64766e-05
1.46426e-05
1.21255e-05
9.20022e-06
5.94346e-06
2.3228e-06
2.9063e-07
1.40603e-08
5.16252e-09
1.41723e-07
6.03259e-07
2.44861e-06
6.93301e-06
1.0991e-05
1.5592e-05
1.88065e-05
2.13912e-05
2.18888e-05
2.2083e-05
2.22978e-05
2.1525e-05
1.98132e-05
1.65666e-05
1.28692e-05
8.67775e-06
3.90883e-06
5.22588e-07
1.6744e-08
7.17342e-09
2.2037e-07
9.75588e-07
4.05757e-06
9.49548e-06
1.40186e-05
1.93691e-05
2.1082e-05
2.09881e-05
2.07101e-05
2.06578e-05
2.10403e-05
2.14955e-05
2.15971e-05
1.93141e-05
1.53131e-05
1.04079e-05
4.98177e-06
7.77854e-07
1.88778e-08
7.52748e-09
2.94137e-07
1.35803e-06
5.33201e-06
1.10223e-05
1.59391e-05
2.02347e-05
1.9854e-05
1.92641e-05
1.90151e-05
1.90511e-05
2.00731e-05
2.11057e-05
2.18219e-05
2.10787e-05
1.71346e-05
1.224e-05
6.04344e-06
1.07432e-06
2.05763e-08
7.04974e-09
3.278e-07
1.5496e-06
6.1844e-06
1.2026e-05
1.67492e-05
1.98634e-05
1.85864e-05
1.80613e-05
1.80075e-05
1.82183e-05
1.95111e-05
2.08515e-05
2.185e-05
2.16542e-05
1.78641e-05
1.25781e-05
6.60301e-06
1.27421e-06
2.17464e-08
5.64036e-09
3.16565e-07
1.62774e-06
6.36847e-06
1.20705e-05
1.64618e-05
1.86721e-05
1.8098e-05
1.78257e-05
1.7953e-05
1.83088e-05
1.93977e-05
2.08579e-05
2.18848e-05
2.0951e-05
1.85121e-05
1.29985e-05
7.14309e-06
1.47125e-06
2.29377e-08
4.37608e-09
2.69626e-07
1.5332e-06
6.0383e-06
1.14721e-05
1.54241e-05
1.80169e-05
1.8018e-05
1.79094e-05
1.83003e-05
1.92311e-05
2.03283e-05
2.12324e-05
2.19432e-05
2.04378e-05
1.83582e-05
1.26108e-05
7.1112e-06
1.58408e-06
2.3871e-08
3.38572e-09
1.90955e-07
1.25489e-06
5.24697e-06
1.0466e-05
1.427e-05
1.72487e-05
1.79064e-05
1.82938e-05
1.93164e-05
2.00985e-05
2.10664e-05
2.14567e-05
2.17979e-05
2.00183e-05
1.73774e-05
1.20941e-05
7.0805e-06
1.65986e-06
2.51067e-08
2.50964e-09
1.11191e-07
8.91911e-07
4.10052e-06
8.81698e-06
1.22628e-05
1.5342e-05
1.6982e-05
1.82001e-05
1.95218e-05
2.02226e-05
2.09908e-05
2.10268e-05
2.0836e-05
1.86297e-05
1.62031e-05
1.14263e-05
6.69365e-06
1.61735e-06
2.64388e-08
1.69774e-09
5.52436e-08
5.12186e-07
2.68023e-06
6.86491e-06
1.01886e-05
1.30988e-05
1.51802e-05
1.68985e-05
1.82887e-05
1.88737e-05
1.97021e-05
1.95564e-05
1.88724e-05
1.68303e-05
1.44165e-05
1.0244e-05
6.15455e-06
1.45456e-06
2.76242e-08
9.64422e-10
2.43041e-08
2.46741e-07
1.31928e-06
4.44204e-06
7.51791e-06
9.90765e-06
1.18486e-05
1.34753e-05
1.50126e-05
1.5718e-05
1.66274e-05
1.65435e-05
1.59271e-05
1.45218e-05
1.24367e-05
8.89464e-06
5.22523e-06
1.21855e-06
2.78263e-08
4.0544e-10
9.3453e-09
9.29187e-08
5.40863e-07
2.18303e-06
4.4977e-06
6.84479e-06
8.66922e-06
9.9349e-06
1.13481e-05
1.1925e-05
1.28649e-05
1.307e-05
1.28056e-05
1.16462e-05
9.83126e-06
6.83813e-06
4.05646e-06
9.25305e-07
2.57895e-08
1.21689e-10
4.16514e-09
3.41419e-08
1.71651e-07
6.84632e-07
1.92209e-06
3.13351e-06
4.65713e-06
5.7918e-06
7.01333e-06
7.8578e-06
8.32729e-06
8.81167e-06
8.38751e-06
7.57099e-06
6.03874e-06
4.3181e-06
2.64985e-06
5.93823e-07
2.21595e-08
7.1577e-11
2.24498e-09
1.44185e-08
5.74317e-08
1.78529e-07
5.1292e-07
9.62568e-07
1.42697e-06
1.98787e-06
2.3122e-06
2.76833e-06
2.92739e-06
3.08002e-06
3.01591e-06
2.88704e-06
2.61115e-06
2.41882e-06
1.47766e-06
3.16984e-07
1.74571e-08
1.98183e-10
3.03548e-09
1.05512e-08
2.62541e-08
6.54515e-08
1.22442e-07
2.48321e-07
3.20091e-07
4.52885e-07
5.2147e-07
6.35005e-07
6.90101e-07
8.0891e-07
8.3599e-07
9.64582e-07
9.59196e-07
1.014e-06
5.94294e-07
1.07859e-07
1.08942e-08
7.6008e-11
1.80091e-10
4.59525e-10
9.2442e-10
2.0794e-09
3.03126e-09
5.39815e-09
6.27081e-09
8.12562e-09
8.65246e-09
9.82741e-09
1.01232e-08
1.09506e-08
1.10286e-08
1.15683e-08
1.12548e-08
1.14501e-08
1.12797e-08
1.00905e-08
6.59824e-09
)
;

boundaryField
{
    movingWall
    {
        type            nutkWallFunction;
        Cmu             0.09;
        kappa           0.41;
        E               9.8;
        value           uniform 0;
    }
    fixedWalls
    {
        type            nutkWallFunction;
        Cmu             0.09;
        kappa           0.41;
        E               9.8;
        value           uniform 0;
    }
    frontAndBack
    {
        type            empty;
    }
}


// ************************************************************************* //
