/*--------------------------------*- C++ -*----------------------------------*\
| =========                 |                                                 |
| \\      /  F ield         | OpenFOAM: The Open Source CFD Toolbox           |
|  \\    /   O peration     | Version:  5.0                                   |
|   \\  /    A nd           | Web:      www.OpenFOAM.org                      |
|    \\/     M anipulation  |                                                 |
\*---------------------------------------------------------------------------*/
FoamFile
{
    version     2.0;
    format      ascii;
    class       volScalarField;
    location    "8.5";
    object      omega;
}
// * * * * * * * * * * * * * * * * * * * * * * * * * * * * * * * * * * * * * //

dimensions      [0 0 -1 0 0 0 0];

internalField   nonuniform List<scalar> 
400
(
128
128
128
128
128
128
128
128
128
128
128
128
128
128
128
128
128
128
128
128
128
55.5289
78.331
84.7006
79.0433
67.1667
57.5544
47.5983
42.1634
36.9303
34.6763
33.7096
34.6046
36.969
40.0007
45.006
53.0947
66.3232
91.8319
128
128
53.1054
58.7105
55.6229
42.5655
34.037
27.5945
24.2733
22.2695
21.3105
20.9439
20.8907
21.7337
22.9955
25.6873
30.2278
38.5585
53.5466
84.1004
128
128
48.1751
46.2086
37.2215
26.3153
21.2346
17.2525
15.3284
13.6234
12.8244
12.4155
12.3098
12.7368
13.8265
15.8158
19.4699
26.4094
40.0356
72.9857
128
128
42.6501
36.7727
26.1381
18.2479
14.5639
11.4196
9.90176
8.59639
8.01844
7.77395
7.74715
8.35816
9.33897
11.1452
14.312
20.5806
33.0254
65.3409
128
128
38.2173
29.9381
19.7407
13.5953
10.6033
8.04933
6.83032
5.8787
5.47617
5.32759
5.36064
5.94611
6.80751
8.33062
10.7634
15.8336
26.5143
57.8813
128
128
34.3024
25.4781
15.688
10.7936
8.22154
6.11306
5.10307
4.38455
4.08901
3.99255
4.10641
4.66995
5.53792
6.97949
9.11132
13.5727
23.4345
53.2914
128
128
32.3124
22.1412
13.4847
9.32854
6.91974
5.05032
4.14876
3.57818
3.35338
3.29042
3.42221
3.88053
4.65011
5.98844
7.95811
11.5292
20.3023
48.7623
128
128
29.8684
20.3068
12.2829
8.43423
6.10093
4.41846
3.61383
3.17661
3.01726
2.98446
3.12827
3.52368
4.22295
5.45033
7.41562
10.5678
18.854
46.1609
128
128
29.8284
18.8743
11.7672
8.1931
5.87528
4.30718
3.53794
3.10135
2.92822
2.89484
3.03214
3.38214
4.0332
5.11844
7.06826
9.70676
17.4375
43.4144
128
128
31.4909
18.5825
11.8661
8.30136
5.95862
4.3957
3.61407
3.16622
2.97843
2.95432
3.06796
3.35452
3.98568
4.99821
6.92421
9.34807
16.8398
41.6361
128
128
35.636
18.9722
12.2198
8.62778
6.23712
4.65396
3.82889
3.35973
3.15529
3.15985
3.27039
3.54756
4.12742
5.02126
6.87373
9.21615
16.5718
40.074
128
128
43.3279
20.2917
12.9638
9.32409
6.83864
5.21679
4.30385
3.79368
3.55732
3.53724
3.62983
3.88355
4.44829
5.38727
7.07183
9.2695
16.5281
39.3828
128
128
53.9144
23.6644
14.3667
10.3609
7.71784
5.94296
4.90744
4.33262
4.04639
4.04543
4.15424
4.43682
5.05478
5.96726
7.44803
9.73197
17.0839
39.7017
128
128
64.3463
28.6505
16.8786
11.9879
9.20096
7.33117
6.13811
5.42931
5.03883
5.02042
5.13803
5.43045
6.05847
6.89573
8.26104
10.6273
18.1077
40.9436
128
128
75.6239
37.7692
20.9457
14.3624
10.9298
8.85246
7.59461
6.88499
6.49857
6.50454
6.62527
6.8899
7.44723
8.16912
9.44161
12.0357
19.862
43.3205
128
128
74.0451
46.0428
29.2647
19.5498
14.4164
11.5494
9.83943
8.84732
8.29297
8.21326
8.32105
8.57716
9.13496
9.87058
11.3699
14.4972
23.1923
48.51
128
128
63.7222
46.4091
35.4764
27.6384
21.8978
17.811
14.9477
13.0884
12.0179
11.3706
11.1535
11.2408
11.6636
12.6616
14.9898
19.4188
30.118
59.5713
128
128
47.3225
45.1197
39.6852
34.4703
30.3872
27.0413
24.937
23.4194
22.6297
22.7072
23.2014
24.2957
26.6612
29.2631
35.0612
41.9015
57.0693
90.4276
128
128
128
128
128
128
128
128
128
128
128
128
128
128
128
128
128
128
128
128
128
)
;

boundaryField
{
    movingWall
    {
        Cmu             0.09;
        kappa           0.41;
        E               9.8;
        beta1           0.075;
        blended         false;
        type            omegaWallFunction;
        value           nonuniform List<scalar> 
20
(
128
128
128
128
128
128
128
128
128
128
128
128
128
128
128
128
128
128
128
128
)
;
    }
    fixedWalls
    {
        Cmu             0.09;
        kappa           0.41;
        E               9.8;
        beta1           0.075;
        blended         false;
        type            omegaWallFunction;
        value           nonuniform List<scalar> 
60
(
128
128
128
128
128
128
128
128
128
128
128
128
128
128
128
128
128
128
128
128
128
128
128
128
128
128
128
128
128
128
128
128
128
128
128
128
128
128
128
128
128
128
128
128
128
128
128
128
128
128
128
128
128
128
128
128
128
128
128
128
)
;
    }
    frontAndBack
    {
        type            empty;
    }
}


// ************************************************************************* //
