/*--------------------------------*- C++ -*----------------------------------*\
| =========                 |                                                 |
| \\      /  F ield         | OpenFOAM: The Open Source CFD Toolbox           |
|  \\    /   O peration     | Version:  5.0                                   |
|   \\  /    A nd           | Web:      www.OpenFOAM.org                      |
|    \\/     M anipulation  |                                                 |
\*---------------------------------------------------------------------------*/
FoamFile
{
    version     2.0;
    format      ascii;
    class       volScalarField;
    location    "8.5";
    object      p;
}
// * * * * * * * * * * * * * * * * * * * * * * * * * * * * * * * * * * * * * //

dimensions      [0 2 -2 0 0 0 0];

internalField   nonuniform List<scalar> 
400
(
6.27517e-08
-0.000107991
-0.000264282
-0.000160586
-0.000868222
-0.00261456
-0.00477411
-0.00676808
-0.00837791
-0.00947222
-0.0100143
-0.00995912
-0.00927597
-0.00778026
-0.00535647
-0.00197395
0.00222554
0.00666919
0.00985767
0.0111473
1.14893e-05
-6.84499e-05
-0.000245048
-0.000854108
-0.00211392
-0.00396765
-0.00591633
-0.00778244
-0.00926436
-0.010279
-0.0107782
-0.0107503
-0.0101539
-0.00888697
-0.0068222
-0.00390752
-0.00016058
0.00406931
0.00772121
0.00977945
0.000342456
-6.28819e-05
-0.000858183
-0.00219332
-0.00402597
-0.00599193
-0.00791375
-0.00964462
-0.0109086
-0.0117215
-0.0120761
-0.0119744
-0.0113835
-0.0102947
-0.00864977
-0.00638398
-0.00342672
0.000187045
0.00384003
0.00630258
0.000240971
-0.000519119
-0.00199445
-0.00402012
-0.00620561
-0.00823357
-0.00995967
-0.0112716
-0.0122106
-0.0127912
-0.0130057
-0.0128624
-0.0123569
-0.0114688
-0.0101789
-0.00846531
-0.00625219
-0.00343573
-0.00031771
0.00204189
-0.000624184
-0.00165998
-0.00364705
-0.00600758
-0.00821098
-0.0100436
-0.0114746
-0.0125269
-0.0132734
-0.013724
-0.0138827
-0.0137425
-0.013301
-0.0125568
-0.011513
-0.0101721
-0.00853256
-0.00642853
-0.00414152
-0.00199684
-0.00224348
-0.00338293
-0.00551392
-0.00783301
-0.00984897
-0.0114179
-0.0126131
-0.0135042
-0.0141386
-0.0145184
-0.014652
-0.0145334
-0.0141646
-0.0135467
-0.0126902
-0.0116107
-0.0103764
-0.00880588
-0.00718403
-0.00540365
-0.00416186
-0.00526107
-0.00726101
-0.00937933
-0.0111418
-0.0124719
-0.0135042
-0.0142856
-0.0148439
-0.0151787
-0.0152986
-0.0152017
-0.0148946
-0.0143826
-0.0136791
-0.0127857
-0.0118399
-0.0106327
-0.00951567
-0.00807497
-0.00592455
-0.00690956
-0.00869382
-0.0105878
-0.0121194
-0.0132699
-0.0141905
-0.0148944
-0.0153979
-0.0157014
-0.0158136
-0.0157353
-0.0154763
-0.0150446
-0.0144585
-0.0136923
-0.0129555
-0.011961
-0.0112044
-0.0100569
-0.00722895
-0.0081156
-0.00971846
-0.0114342
-0.0128016
-0.0138339
-0.0146789
-0.0153289
-0.0157943
-0.0160758
-0.0161831
-0.0161192
-0.0158945
-0.0155152
-0.0150134
-0.0143136
-0.0137457
-0.0128129
-0.0123718
-0.0114159
-0.00799194
-0.00879333
-0.0102849
-0.0119032
-0.0131774
-0.0141504
-0.0149579
-0.0155794
-0.0160252
-0.0162958
-0.0164014
-0.0163461
-0.0161412
-0.0157856
-0.0153426
-0.014637
-0.0142371
-0.0131982
-0.0130827
-0.0121924
-0.00817241
-0.00894117
-0.0103781
-0.0119795
-0.013245
-0.0142217
-0.015025
-0.015643
-0.0160871
-0.0163579
-0.0164645
-0.0164107
-0.0162096
-0.0158514
-0.0154298
-0.0146707
-0.0143932
-0.0131404
-0.0133802
-0.0123654
-0.00777848
-0.00857773
-0.0100104
-0.0116684
-0.0129945
-0.0140283
-0.0148651
-0.0155088
-0.0159722
-0.0162564
-0.0163681
-0.0163105
-0.0160958
-0.015722
-0.0152412
-0.0144796
-0.0141024
-0.0127222
-0.013184
-0.0119181
-0.00691284
-0.00778789
-0.00925098
-0.0109775
-0.0124242
-0.0135619
-0.0144721
-0.0151737
-0.0156796
-0.0159907
-0.0161121
-0.0160445
-0.0158006
-0.0153774
-0.0148024
-0.0140068
-0.0133803
-0.0119577
-0.0124444
-0.0108375
-0.00585168
-0.00677663
-0.0082169
-0.00990509
-0.0115016
-0.0127891
-0.0138206
-0.0146201
-0.0151983
-0.0155542
-0.0156926
-0.0156121
-0.0153233
-0.0148199
-0.0141231
-0.013213
-0.0122725
-0.0108153
-0.0111631
-0.0091616
-0.00487054
-0.00573645
-0.00701896
-0.0085315
-0.0101881
-0.0116607
-0.0128821
-0.0138367
-0.0145279
-0.0149537
-0.0151203
-0.015024
-0.0146727
-0.0140571
-0.0131957
-0.0120837
-0.0108203
-0.00928417
-0.0094073
-0.00694436
-0.0044578
-0.00491615
-0.00571716
-0.00689425
-0.00847135
-0.0101276
-0.0115974
-0.0127784
-0.0136452
-0.0141835
-0.0143988
-0.0142875
-0.0138615
-0.0131052
-0.0120367
-0.0106624
-0.00909944
-0.00742217
-0.00722642
-0.00421758
-0.00452356
-0.00441766
-0.00437149
-0.0050491
-0.00644811
-0.00820811
-0.00993725
-0.0113932
-0.0124961
-0.0132077
-0.0135261
-0.0134389
-0.0129409
-0.0120359
-0.0107415
-0.00907888
-0.00719415
-0.00531442
-0.0046414
-0.000839342
-0.00440574
-0.00375121
-0.00292807
-0.00311506
-0.00432695
-0.00612794
-0.00805295
-0.00974149
-0.0110808
-0.0119852
-0.0124302
-0.012393
-0.011883
-0.0108829
-0.00941255
-0.00749459
-0.00530603
-0.00302015
-0.00125342
0.00462395
-0.00377091
-0.00282668
-0.00162576
-0.00155927
-0.00262523
-0.0044268
-0.00647521
-0.00838095
-0.00992399
-0.0110138
-0.0115889
-0.0116399
-0.0111431
-0.0101038
-0.00852908
-0.00640937
-0.00373857
-0.000323746
0.00513094
0.0177144
-0.00516063
-0.0019484
-0.000542709
-0.000571238
-0.00155286
-0.00332013
-0.00543846
-0.00752928
-0.00924771
-0.0104781
-0.0111573
-0.0112864
-0.0108562
-0.00987333
-0.0083012
-0.00598986
-0.00206007
0.00527719
0.0194746
0.0421274
)
;

boundaryField
{
    movingWall
    {
        type            zeroGradient;
    }
    fixedWalls
    {
        type            zeroGradient;
    }
    frontAndBack
    {
        type            empty;
    }
}


// ************************************************************************* //
