/*--------------------------------*- C++ -*----------------------------------*\
| =========                 |                                                 |
| \\      /  F ield         | OpenFOAM: The Open Source CFD Toolbox           |
|  \\    /   O peration     | Version:  5.0                                   |
|   \\  /    A nd           | Web:      www.OpenFOAM.org                      |
|    \\/     M anipulation  |                                                 |
\*---------------------------------------------------------------------------*/
FoamFile
{
    version     2.0;
    format      ascii;
    class       surfaceScalarField;
    location    "8.5";
    object      phi;
}
// * * * * * * * * * * * * * * * * * * * * * * * * * * * * * * * * * * * * * //

dimensions      [0 3 -1 0 0 0 0];

internalField   nonuniform List<scalar> 
760
(
2.95583e-07
-2.95589e-07
1.70567e-07
1.25016e-07
-5.37688e-07
7.08255e-07
-2.06002e-06
1.52233e-06
-3.85865e-06
1.79863e-06
-5.37537e-06
1.51672e-06
-6.65948e-06
1.28411e-06
-7.58087e-06
9.21395e-07
-8.29988e-06
7.19006e-07
-8.75929e-06
4.59411e-07
-9.05703e-06
2.97743e-07
-9.13124e-06
7.42084e-08
-9.04816e-06
-8.30827e-08
-8.73855e-06
-3.09605e-07
-8.21625e-06
-5.22304e-07
-7.31282e-06
-9.03433e-07
-5.9702e-06
-1.34261e-06
-4.01356e-06
-1.95664e-06
-1.65192e-06
-2.36164e-06
-1.65192e-06
-2.73751e-07
-2.18379e-08
-1.25618e-06
1.10744e-06
-2.97005e-06
2.42212e-06
-4.64702e-06
3.19931e-06
-5.82206e-06
2.97367e-06
-6.88559e-06
2.58025e-06
-7.6577e-06
2.05622e-06
-8.32335e-06
1.58705e-06
-8.76148e-06
1.15713e-06
-9.0412e-06
7.39128e-07
-9.12842e-06
3.84968e-07
-9.04669e-06
-7.52166e-09
-8.84656e-06
-2.83218e-07
-8.52053e-06
-6.35632e-07
-7.99092e-06
-1.05191e-06
-7.25198e-06
-1.64237e-06
-6.13882e-06
-2.45577e-06
-4.53916e-06
-3.55629e-06
-2.34241e-06
-4.5584e-06
-3.99433e-06
-1.04872e-06
1.02688e-06
-2.62681e-06
2.68554e-06
-4.12826e-06
3.92357e-06
-5.20065e-06
4.27169e-06
-6.00839e-06
3.78141e-06
-6.62393e-06
3.19578e-06
-6.98114e-06
2.41343e-06
-7.19028e-06
1.79619e-06
-7.18885e-06
1.1557e-06
-7.15323e-06
7.03505e-07
-7.04734e-06
2.79083e-07
-6.97154e-06
-8.33206e-08
-6.75407e-06
-5.00695e-07
-6.46908e-06
-9.20618e-07
-6.0615e-06
-1.45949e-06
-5.55598e-06
-2.14789e-06
-4.88043e-06
-3.13132e-06
-3.87285e-06
-4.56388e-06
-2.27744e-06
-6.15381e-06
-6.27176e-06
-1.38656e-06
2.41343e-06
-2.92672e-06
4.2257e-06
-4.09482e-06
5.09167e-06
-4.80748e-06
4.98435e-06
-5.23019e-06
4.20413e-06
-5.37338e-06
3.33897e-06
-5.3925e-06
2.43256e-06
-5.38316e-06
1.78684e-06
-5.39577e-06
1.16832e-06
-5.39076e-06
6.98488e-07
-5.33202e-06
2.20344e-07
-5.20952e-06
-2.05817e-07
-5.03733e-06
-6.72885e-07
-4.78343e-06
-1.17452e-06
-4.43996e-06
-1.80296e-06
-4.0104e-06
-2.57745e-06
-3.51847e-06
-3.62325e-06
-2.86093e-06
-5.22142e-06
-1.78135e-06
-7.2334e-06
-8.05311e-06
-1.3976e-06
3.81104e-06
-2.64472e-06
5.47281e-06
-3.45486e-06
5.90181e-06
-3.89151e-06
5.42101e-06
-4.04442e-06
4.35704e-06
-4.08273e-06
3.37728e-06
-4.13332e-06
2.48314e-06
-4.1761e-06
1.82963e-06
-4.21128e-06
1.2035e-06
-4.20921e-06
6.96414e-07
-4.16463e-06
1.75764e-07
-4.05767e-06
-3.12781e-07
-3.88735e-06
-8.43198e-07
-3.64361e-06
-1.41826e-06
-3.33869e-06
-2.10788e-06
-2.96345e-06
-2.95269e-06
-2.57746e-06
-4.00924e-06
-2.17622e-06
-5.62265e-06
-1.39752e-06
-8.0121e-06
-9.45063e-06
-1.14164e-06
4.95267e-06
-2.04777e-06
6.37895e-06
-2.64016e-06
6.4942e-06
-2.92455e-06
5.7054e-06
-3.0293e-06
4.46178e-06
-3.08498e-06
3.43296e-06
-3.168e-06
2.56616e-06
-3.23065e-06
1.89228e-06
-3.27469e-06
1.24754e-06
-3.27468e-06
6.96407e-07
-3.2337e-06
1.34782e-07
-3.13993e-06
-4.06555e-07
-2.99169e-06
-9.91438e-07
-2.77951e-06
-1.63044e-06
-2.51084e-06
-2.37655e-06
-2.17013e-06
-3.2934e-06
-1.79747e-06
-4.38191e-06
-1.43253e-06
-5.98759e-06
-1.06344e-06
-8.38119e-06
-1.05141e-05
-8.24034e-07
5.77671e-06
-1.46357e-06
7.01848e-06
-1.88977e-06
6.92041e-06
-2.07767e-06
5.8933e-06
-2.17928e-06
4.56339e-06
-2.26669e-06
3.52036e-06
-2.35938e-06
2.65886e-06
-2.42327e-06
1.95617e-06
-2.46584e-06
1.2901e-06
-2.4671e-06
6.9767e-07
-2.43434e-06
1.02025e-07
-2.36018e-06
-4.80712e-07
-2.2455e-06
-1.10612e-06
-2.0818e-06
-1.79414e-06
-1.87363e-06
-2.58471e-06
-1.61361e-06
-3.55342e-06
-1.31839e-06
-4.67713e-06
-1.05443e-06
-6.25155e-06
-7.89395e-07
-8.64622e-06
-1.13035e-05
-4.89946e-07
6.26665e-06
-9.14201e-07
7.44274e-06
-1.20589e-06
7.2121e-06
-1.35172e-06
6.03913e-06
-1.45564e-06
4.66731e-06
-1.54797e-06
3.61269e-06
-1.63575e-06
2.74665e-06
-1.69511e-06
2.01553e-06
-1.73311e-06
1.3281e-06
-1.7372e-06
7.01765e-07
-1.7179e-06
8.2721e-08
-1.66685e-06
-5.31759e-07
-1.58696e-06
-1.18601e-06
-1.46842e-06
-1.91269e-06
-1.31395e-06
-2.73918e-06
-1.12034e-06
-3.74704e-06
-8.8015e-07
-4.91731e-06
-6.81138e-07
-6.45056e-06
-5.83755e-07
-8.74361e-06
-1.18872e-05
-2.23592e-07
6.49025e-06
-4.53445e-07
7.67259e-06
-6.20804e-07
7.37946e-06
-7.32461e-07
6.15079e-06
-8.18972e-07
4.75382e-06
-8.98043e-07
3.69176e-06
-9.72925e-07
2.82153e-06
-1.02418e-06
2.06678e-06
-1.05869e-06
1.36262e-06
-1.06974e-06
7.12817e-07
-1.06526e-06
7.82346e-08
-1.04029e-06
-5.56729e-07
-9.98449e-07
-1.22785e-06
-9.3219e-07
-1.97895e-06
-8.45232e-07
-2.82614e-06
-7.30477e-07
-3.86179e-06
-5.98715e-07
-5.04907e-06
-4.83527e-07
-6.56575e-06
-4.23466e-07
-8.80367e-06
-1.23107e-05
5.6527e-08
6.43372e-06
-2.40845e-08
7.7532e-06
-8.14366e-08
7.43681e-06
-1.36814e-07
6.20616e-06
-2.11865e-07
4.82887e-06
-2.85483e-07
3.76538e-06
-3.44302e-07
2.88035e-06
-3.86324e-07
2.1088e-06
-4.18364e-07
1.39466e-06
-4.37864e-07
7.32317e-07
-4.49607e-07
8.99774e-08
-4.50288e-07
-5.56048e-07
-4.4336e-07
-1.23478e-06
-4.25957e-07
-1.99635e-06
-3.92125e-07
-2.85997e-06
-3.52554e-07
-3.90136e-06
-2.80683e-07
-5.12095e-06
-2.49823e-07
-6.59661e-06
-3.22525e-07
-8.73097e-06
-1.26332e-05
3.13576e-07
6.12014e-06
4.32902e-07
7.63387e-06
4.78489e-07
7.39122e-06
4.13571e-07
6.27108e-06
3.53941e-07
4.8885e-06
3.06308e-07
3.81301e-06
2.68492e-07
2.91817e-06
2.38024e-07
2.13927e-06
2.09089e-07
1.42359e-06
1.82369e-07
7.59037e-07
1.55081e-07
1.17266e-07
1.27215e-07
-5.28182e-07
1.00394e-07
-1.20796e-06
4.93248e-08
-1.94528e-06
5.74594e-08
-2.8681e-06
-4.7254e-08
-3.79665e-06
1.3572e-08
-5.18177e-06
-1.1703e-07
-6.466e-06
-2.20397e-07
-8.6276e-06
-1.28536e-05
5.56047e-07
5.5641e-06
8.84491e-07
7.30543e-06
1.05265e-06
7.22306e-06
1.00452e-06
6.31921e-06
9.50038e-07
4.94298e-06
9.13729e-07
3.84932e-06
8.91332e-07
2.94056e-06
8.73685e-07
2.15692e-06
8.49595e-07
1.44768e-06
8.18049e-07
7.90584e-07
7.74985e-07
1.60329e-07
7.20672e-07
-4.73869e-07
6.51641e-07
-1.13893e-06
5.83015e-07
-1.87665e-06
4.77767e-07
-2.76285e-06
3.80337e-07
-3.69922e-06
2.67515e-07
-5.06895e-06
3.10816e-08
-6.22957e-06
-1.41318e-07
-8.4552e-06
-1.29949e-05
8.46635e-07
4.71746e-06
1.30311e-06
6.84896e-06
1.59309e-06
6.93308e-06
1.6278e-06
6.2845e-06
1.57647e-06
4.99431e-06
1.55756e-06
3.86824e-06
1.55489e-06
2.94323e-06
1.5513e-06
2.16051e-06
1.53305e-06
1.46593e-06
1.49731e-06
8.26327e-07
1.43882e-06
2.1882e-07
1.35864e-06
-3.93689e-07
1.25389e-06
-1.03418e-06
1.13169e-06
-1.75445e-06
9.53435e-07
-2.5846e-06
7.96557e-07
-3.54234e-06
5.35559e-07
-4.80795e-06
2.26753e-07
-5.92076e-06
4.39509e-09
-8.23284e-06
-1.29905e-05
1.08664e-06
3.63082e-06
1.76274e-06
6.17286e-06
2.16242e-06
6.5334e-06
2.3221e-06
6.12482e-06
2.28966e-06
5.02676e-06
2.2797e-06
3.8782e-06
2.28838e-06
2.93455e-06
2.29674e-06
2.15215e-06
2.2857e-06
1.47697e-06
2.24826e-06
8.63768e-07
2.17859e-06
2.88493e-07
2.07607e-06
-2.91174e-07
1.93526e-06
-8.93373e-07
1.76032e-06
-1.57951e-06
1.53205e-06
-2.35633e-06
1.29322e-06
-3.30351e-06
9.11626e-07
-4.42636e-06
4.86433e-07
-5.49557e-06
1.1915e-07
-7.86556e-06
-1.28714e-05
1.33131e-06
2.29951e-06
2.09191e-06
5.41226e-06
2.6129e-06
6.01241e-06
2.97451e-06
5.76321e-06
3.09848e-06
4.90278e-06
3.13073e-06
3.84596e-06
3.14552e-06
2.91976e-06
3.15989e-06
2.13778e-06
3.15388e-06
1.48298e-06
3.11613e-06
9.01523e-07
3.03742e-06
3.67201e-07
2.91561e-06
-1.69365e-07
2.73915e-06
-7.16912e-07
2.51532e-06
-1.35568e-06
2.22324e-06
-2.06425e-06
1.87084e-06
-2.9511e-06
1.3413e-06
-3.89682e-06
7.32352e-07
-4.88663e-06
2.78837e-07
-7.41204e-06
-1.25925e-05
1.34728e-06
9.52226e-07
2.27509e-06
4.48445e-06
2.96369e-06
5.32381e-06
3.56236e-06
5.16454e-06
3.91211e-06
4.55303e-06
4.0855e-06
3.67257e-06
4.17213e-06
2.83312e-06
4.2159e-06
2.09401e-06
4.21998e-06
1.4789e-06
4.18206e-06
9.39441e-07
4.09124e-06
4.58028e-07
3.95565e-06
-3.37748e-08
3.73798e-06
-4.99243e-07
3.45773e-06
-1.07544e-06
3.07229e-06
-1.67881e-06
2.56588e-06
-2.4447e-06
1.88291e-06
-3.21385e-06
1.09353e-06
-4.09725e-06
5.15183e-07
-6.8337e-06
-1.20774e-05
7.56376e-07
1.95849e-07
1.94592e-06
3.29491e-06
3.02283e-06
4.2469e-06
3.91447e-06
4.2729e-06
4.57917e-06
3.88833e-06
5.0182e-06
3.23353e-06
5.29156e-06
2.55976e-06
5.44772e-06
1.93786e-06
5.51345e-06
1.41317e-06
5.51813e-06
9.3476e-07
5.43593e-06
5.40232e-07
5.25756e-06
1.44597e-07
4.99295e-06
-2.34634e-07
4.62404e-06
-7.06526e-07
4.09728e-06
-1.15205e-06
3.40061e-06
-1.74803e-06
2.4767e-06
-2.28994e-06
1.48897e-06
-3.10952e-06
8.51845e-07
-6.19657e-06
-1.12255e-05
-1.75989e-07
3.71838e-07
1.22398e-06
1.89494e-06
2.55343e-06
2.91745e-06
3.79024e-06
3.03609e-06
4.80963e-06
2.86894e-06
5.59269e-06
2.45048e-06
6.14653e-06
2.00591e-06
6.54301e-06
1.54137e-06
6.75337e-06
1.20281e-06
6.85213e-06
8.35993e-07
6.79385e-06
5.98518e-07
6.65618e-06
2.82266e-07
6.33243e-06
8.91178e-08
5.87725e-06
-2.51356e-07
5.1963e-06
-4.71088e-07
4.33983e-06
-8.9156e-07
3.15741e-06
-1.10752e-06
2.15558e-06
-2.10769e-06
1.40602e-06
-5.44701e-06
-9.8195e-06
-1.21273e-06
1.58457e-06
-2.10212e-07
8.92422e-07
1.40243e-06
1.3048e-06
2.96486e-06
1.47367e-06
4.32872e-06
1.50508e-06
5.43226e-06
1.34694e-06
6.26344e-06
1.17473e-06
6.86339e-06
9.41421e-07
7.26726e-06
7.98938e-07
7.48012e-06
6.23135e-07
7.54989e-06
5.28751e-07
7.44138e-06
3.90776e-07
7.20804e-06
3.22453e-07
6.77143e-06
1.85259e-07
6.19131e-06
1.09028e-07
5.38779e-06
-8.80416e-08
4.56339e-06
-2.83114e-07
3.87019e-06
-1.41449e-06
2.62387e-06
-4.20069e-06
-7.19563e-06
1.58457e-06
2.47699e-06
3.78179e-06
5.25546e-06
6.76054e-06
8.10747e-06
9.28221e-06
1.02236e-05
1.10226e-05
1.16457e-05
1.21745e-05
1.25652e-05
1.28877e-05
1.30729e-05
1.3182e-05
1.30939e-05
1.28108e-05
1.13963e-05
7.19563e-06
)
;

boundaryField
{
    movingWall
    {
        type            calculated;
        value           uniform 0;
    }
    fixedWalls
    {
        type            calculated;
        value           uniform 0;
    }
    frontAndBack
    {
        type            empty;
        value           nonuniform 0();
    }
}


// ************************************************************************* //
