/*--------------------------------*- C++ -*----------------------------------*\
| =========                 |                                                 |
| \\      /  F ield         | OpenFOAM: The Open Source CFD Toolbox           |
|  \\    /   O peration     | Version:  5.0                                   |
|   \\  /    A nd           | Web:      www.OpenFOAM.org                      |
|    \\/     M anipulation  |                                                 |
\*---------------------------------------------------------------------------*/
FoamFile
{
    version     2.0;
    format      ascii;
    class       volVectorField;
    location    "8.5";
    object      U;
}
// * * * * * * * * * * * * * * * * * * * * * * * * * * * * * * * * * * * * * //

dimensions      [0 1 -1 0 0 0 0];

internalField   nonuniform List<vector> 
400
(
(0.00268942 -0.00416737 0)
(0.00862102 -0.0019568 0)
(-0.0027738 0.00176185 0)
(-0.0154826 0.00945729 0)
(-0.0642439 0.0201356 0)
(-0.0963204 0.0147553 0)
(-0.125566 0.0146511 0)
(-0.145022 0.0111676 0)
(-0.161391 0.00983882 0)
(-0.171737 0.00711665 0)
(-0.17948 0.005791 0)
(-0.182937 0.00358996 0)
(-0.184027 0.00203614 0)
(-0.180099 -0.00143617 0)
(-0.170792 -0.00372907 0)
(-0.154598 -0.00914119 0)
(-0.130372 -0.0138052 0)
(-0.0965472 -0.0200546 0)
(-0.0576023 -0.0197176 0)
(-0.0126241 -0.00489855 0)
(-0.000671442 -0.00892496 0)
(-0.0100452 0.00735461 0)
(-0.0375801 0.0294044 0)
(-0.0781784 0.0505618 0)
(-0.109352 0.0475696 0)
(-0.13027 0.0416414 0)
(-0.148189 0.0343646 0)
(-0.161973 0.0241534 0)
(-0.172541 0.0177151 0)
(-0.179085 0.0101262 0)
(-0.182991 0.00508204 0)
(-0.183452 -0.00127254 0)
(-0.181228 -0.00623123 0)
(-0.175975 -0.0131203 0)
(-0.166787 -0.0204574 0)
(-0.152409 -0.0318256 0)
(-0.131952 -0.0459328 0)
(-0.103502 -0.0649145 0)
(-0.0692657 -0.0786422 0)
(-0.0201836 -0.0565777 0)
(-0.00835657 0.00862101 0)
(-0.0339655 0.0398182 0)
(-0.0687391 0.0656761 0)
(-0.0976468 0.0747172 0)
(-0.115709 0.0669652 0)
(-0.128015 0.0572992 0)
(-0.139028 0.0433199 0)
(-0.14341 0.0342171 0)
(-0.143949 0.0240004 0)
(-0.14387 0.0158324 0)
(-0.142186 0.00779098 0)
(-0.14049 0.000590971 0)
(-0.138361 -0.00689494 0)
(-0.133355 -0.0147832 0)
(-0.127219 -0.0251427 0)
(-0.117343 -0.0391128 0)
(-0.104044 -0.0598608 0)
(-0.0842437 -0.0871208 0)
(-0.061525 -0.11455 0)
(-0.0223718 -0.112719 0)
(-0.0116363 0.0348658 0)
(-0.0446877 0.0705426 0)
(-0.0748682 0.0910183 0)
(-0.0937197 0.0916015 0)
(-0.10327 0.0791595 0)
(-0.108602 0.0651383 0)
(-0.108225 0.049159 0)
(-0.106607 0.0360433 0)
(-0.108341 0.0233811 0)
(-0.107708 0.0138898 0)
(-0.10765 0.00460817 0)
(-0.105697 -0.00320449 0)
(-0.103004 -0.0117605 0)
(-0.098798 -0.0206295 0)
(-0.0930792 -0.031831 0)
(-0.0862356 -0.0461867 0)
(-0.0763733 -0.0673936 0)
(-0.0605381 -0.100407 0)
(-0.0471965 -0.138269 0)
(-0.0174457 -0.147279 0)
(-0.0119752 0.0613174 0)
(-0.0451674 0.096484 0)
(-0.0653434 0.108406 0)
(-0.0780882 0.10299 0)
(-0.0809324 0.0857782 0)
(-0.0816084 0.0682147 0)
(-0.0810219 0.0500736 0)
(-0.0829358 0.036726 0)
(-0.0838519 0.0239651 0)
(-0.0844931 0.0139388 0)
(-0.0840029 0.00379493 0)
(-0.0825971 -0.00553651 0)
(-0.0796289 -0.0157739 0)
(-0.0756288 -0.0266387 0)
(-0.0699624 -0.0395881 0)
(-0.0637133 -0.0551968 0)
(-0.0572703 -0.0754513 0)
(-0.0426228 -0.107907 0)
(-0.0413282 -0.156185 0)
(-0.00772306 -0.179788 0)
(-0.0102684 0.086117 0)
(-0.036912 0.117331 0)
(-0.0500303 0.12303 0)
(-0.060022 0.111159 0)
(-0.0592316 0.0890912 0)
(-0.0605078 0.0687805 0)
(-0.0616505 0.050996 0)
(-0.0642253 0.0375629 0)
(-0.0649167 0.0246965 0)
(-0.0658943 0.013953 0)
(-0.0651823 0.00307956 0)
(-0.0640979 -0.00730804 0)
(-0.0614086 -0.0185837 0)
(-0.057954 -0.0308686 0)
(-0.0528691 -0.0452976 0)
(-0.0464932 -0.0627521 0)
(-0.0425128 -0.0836116 0)
(-0.0266549 -0.115202 0)
(-0.0319833 -0.16296 0)
(-0.00459658 -0.200132 0)
(-0.00785906 0.106584 0)
(-0.0266768 0.132634 0)
(-0.036331 0.133049 0)
(-0.0431316 0.115344 0)
(-0.0412646 0.0900907 0)
(-0.0440917 0.0697135 0)
(-0.0457704 0.0523777 0)
(-0.0481159 0.0385175 0)
(-0.0487827 0.0253393 0)
(-0.0496754 0.0138096 0)
(-0.0490234 0.00220674 0)
(-0.0481888 -0.0091361 0)
(-0.0460692 -0.0213218 0)
(-0.0434239 -0.0346867 0)
(-0.0397427 -0.0501469 0)
(-0.0336198 -0.0690648 0)
(-0.0330105 -0.0908343 0)
(-0.0170477 -0.122787 0)
(-0.0277074 -0.171119 0)
(0.00107601 -0.219382 0)
(-0.00428542 0.120047 0)
(-0.0165233 0.144172 0)
(-0.0233954 0.141172 0)
(-0.0279691 0.119515 0)
(-0.0264843 0.0929563 0)
(-0.0300897 0.0715933 0)
(-0.0315643 0.0541379 0)
(-0.0335753 0.0397077 0)
(-0.034188 0.0261436 0)
(-0.0349454 0.0139174 0)
(-0.0345244 0.00175295 0)
(-0.0339655 -0.0103124 0)
(-0.032519 -0.023175 0)
(-0.0305943 -0.0373798 0)
(-0.0285103 -0.0535174 0)
(-0.0222336 -0.0734038 0)
(-0.0247213 -0.0956798 0)
(-0.00779344 -0.126477 0)
(-0.0220591 -0.173002 0)
(0.00266115 -0.231111 0)
(-0.00142709 0.128618 0)
(-0.008336 0.151262 0)
(-0.0120529 0.145626 0)
(-0.015041 0.12155 0)
(-0.0139436 0.0934846 0)
(-0.0175265 0.0726544 0)
(-0.0185427 0.0555375 0)
(-0.0201858 0.040763 0)
(-0.0207383 0.0268675 0)
(-0.0214091 0.0140758 0)
(-0.0213075 0.00150069 0)
(-0.0210847 -0.0110632 0)
(-0.0203797 -0.0243983 0)
(-0.0190851 -0.0392812 0)
(-0.0189983 -0.0560689 0)
(-0.0128171 -0.0767319 0)
(-0.0188185 -0.10039 0)
(-0.00211313 -0.131169 0)
(-0.0200509 -0.175969 0)
(0.00638446 -0.243089 0)
(0.00219377 0.130265 0)
(-0.000243101 0.155489 0)
(-0.00123795 0.148998 0)
(-0.00287898 0.124038 0)
(-0.00227867 0.0966943 0)
(-0.00550735 0.0751327 0)
(-0.00615633 0.0573218 0)
(-0.00745621 0.0418998 0)
(-0.00796377 0.0276144 0)
(-0.0085986 0.014413 0)
(-0.00882748 0.00159137 0)
(-0.00896549 -0.0112586 0)
(-0.0090317 -0.0247986 0)
(-0.00813514 -0.0399257 0)
(-0.00992931 -0.0572302 0)
(-0.00382053 -0.0775709 0)
(-0.0127246 -0.102342 0)
(0.00437097 -0.130764 0)
(-0.0171638 -0.175737 0)
(0.00736878 -0.249617 0)
(0.00543819 0.127314 0)
(0.00653743 0.155501 0)
(0.00880716 0.149064 0)
(0.00828638 0.124538 0)
(0.00876942 0.0962516 0)
(0.00617674 0.0750796 0)
(0.00590371 0.0576138 0)
(0.00500447 0.0422805 0)
(0.00455095 0.0280727 0)
(0.00394514 0.0148268 0)
(0.00342153 0.00196933 0)
(0.00293128 -0.0109795 0)
(0.00205349 -0.0246133 0)
(0.00234867 -0.0397017 0)
(-0.000867861 -0.0577567 0)
(0.00410617 -0.0773742 0)
(-0.00715424 -0.104418 0)
(0.00891229 -0.13115 0)
(-0.0161001 -0.175065 0)
(0.0103771 -0.256026 0)
(0.0070084 0.118772 0)
(0.0140863 0.151941 0)
(0.01894 0.148118 0)
(0.0201582 0.12656 0)
(0.0206203 0.0993103 0)
(0.0184492 0.0772514 0)
(0.0182356 0.059005 0)
(0.0176786 0.0432525 0)
(0.0173322 0.0288906 0)
(0.0167948 0.0155582 0)
(0.0160182 0.0027385 0)
(0.0151945 -0.0101267 0)
(0.0136335 -0.0236474 0)
(0.0130037 -0.0384399 0)
(0.00914536 -0.0564725 0)
(0.0122766 -0.0754343 0)
(-0.000162531 -0.10252 0)
(0.0146789 -0.126932 0)
(-0.0151982 -0.171571 0)
(0.0124233 -0.258718 0)
(0.0108825 0.107819 0)
(0.0209326 0.144151 0)
(0.0286286 0.142756 0)
(0.0315603 0.126281 0)
(0.0328638 0.0975501 0)
(0.0313891 0.0759712 0)
(0.0313486 0.0580951 0)
(0.031166 0.0426872 0)
(0.0309569 0.0288153 0)
(0.0305 0.015958 0)
(0.029445 0.00362416 0)
(0.0283515 -0.00882181 0)
(0.0259718 -0.0219049 0)
(0.0246192 -0.0365607 0)
(0.0198121 -0.0538339 0)
(0.0206716 -0.0732647 0)
(0.00755756 -0.0992561 0)
(0.0190778 -0.123035 0)
(-0.0142076 -0.166693 0)
(0.0162142 -0.259866 0)
(0.0125407 0.0850911 0)
(0.0281332 0.133937 0)
(0.0397566 0.13654 0)
(0.04387 0.126531 0)
(0.0466474 0.101246 0)
(0.0459178 0.0776309 0)
(0.0458728 0.0589942 0)
(0.0459894 0.0434632 0)
(0.0459354 0.029788 0)
(0.0456444 0.0172012 0)
(0.0442992 0.00525026 0)
(0.0430865 -0.00678092 0)
(0.0398611 -0.0193287 0)
(0.0379503 -0.0334917 0)
(0.0320933 -0.0497123 0)
(0.031026 -0.0687667 0)
(0.0175742 -0.0921498 0)
(0.0251085 -0.11418 0)
(-0.011869 -0.160841 0)
(0.0198255 -0.257964 0)
(0.0169634 0.0653471 0)
(0.0330788 0.117639 0)
(0.0481457 0.126139 0)
(0.0549238 0.119055 0)
(0.0604515 0.0997178 0)
(0.0620788 0.0763992 0)
(0.0627713 0.0572231 0)
(0.0632567 0.0417574 0)
(0.0632119 0.0288024 0)
(0.0631709 0.0171658 0)
(0.061446 0.00628553 0)
(0.0602869 -0.00478065 0)
(0.0561755 -0.0162144 0)
(0.0538129 -0.0294098 0)
(0.0466888 -0.044236 0)
(0.0436867 -0.0625585 0)
(0.0294844 -0.0833916 0)
(0.0309552 -0.104404 0)
(-0.00932638 -0.152554 0)
(0.0257139 -0.255834 0)
(0.0148513 0.0249193 0)
(0.0375608 0.101175 0)
(0.0542823 0.115969 0)
(0.0649545 0.112843 0)
(0.073468 0.0984934 0)
(0.0791896 0.0781439 0)
(0.0821523 0.0589373 0)
(0.0840871 0.0428123 0)
(0.084283 0.0296632 0)
(0.0847901 0.0183482 0)
(0.0824961 0.00831811 0)
(0.0815072 -0.00170795 0)
(0.0764408 -0.0118546 0)
(0.0735616 -0.0238674 0)
(0.0649191 -0.0369879 0)
(0.0598162 -0.0535643 0)
(0.0440346 -0.0708272 0)
(0.0384747 -0.089434 0)
(-0.00407423 -0.143423 0)
(0.0322833 -0.251673 0)
(0.00150641 0.00984479 0)
(0.0301601 0.0723854 0)
(0.0523224 0.0954829 0)
(0.0686065 0.0963121 0)
(0.0833575 0.0871881 0)
(0.0945739 0.0721555 0)
(0.102102 0.0567587 0)
(0.1076 0.0421453 0)
(0.109268 0.0296801 0)
(0.111401 0.018633 0)
(0.109087 0.0093422 0)
(0.108399 0.000122352 0)
(0.102091 -0.0084674 0)
(0.098203 -0.0185565 0)
(0.0873569 -0.0287526 0)
(0.0790379 -0.0420251 0)
(0.0601024 -0.0548784 0)
(0.0460029 -0.0733012 0)
(0.00267118 -0.135427 0)
(0.0420264 -0.247352 0)
(-0.0200244 -0.00309293 0)
(0.0142496 0.0577648 0)
(0.0398244 0.0780524 0)
(0.0629294 0.0800269 0)
(0.0839368 0.0738133 0)
(0.103172 0.0622763 0)
(0.11573 0.0502373 0)
(0.127598 0.0396162 0)
(0.131898 0.0303939 0)
(0.137497 0.0215936 0)
(0.135928 0.0144062 0)
(0.136387 0.00681199 0)
(0.129343 0.00048776 0)
(0.12476 -0.00733484 0)
(0.11114 -0.014285 0)
(0.0999761 -0.0241195 0)
(0.0766266 -0.0334805 0)
(0.0550918 -0.0538961 0)
(0.0176644 -0.127082 0)
(0.0549864 -0.234566 0)
(-0.0267304 0.0221443 0)
(-0.0182728 0.0209109 0)
(0.0121993 0.0399017 0)
(0.0439911 0.0437233 0)
(0.0711551 0.0432813 0)
(0.0975475 0.0379791 0)
(0.115511 0.0323438 0)
(0.131718 0.0242184 0)
(0.140841 0.0197361 0)
(0.148313 0.0134009 0)
(0.15073 0.0107443 0)
(0.15096 0.00513434 0)
(0.146846 0.00352613 0)
(0.141603 -0.00185762 0)
(0.12902 -0.00328584 0)
(0.118314 -0.0100473 0)
(0.0936944 -0.0136812 0)
(0.0792439 -0.0400008 0)
(0.0569896 -0.112346 0)
(0.0794474 -0.183249 0)
(0.0352918 0.0319218 0)
(0.0393823 0.0180829 0)
(0.0570511 0.0163454 0)
(0.0900293 0.0180748 0)
(0.117818 0.0198677 0)
(0.147441 0.0190038 0)
(0.171703 0.0175861 0)
(0.19435 0.0156732 0)
(0.212052 0.0137597 0)
(0.227234 0.0124759 0)
(0.23875 0.0107598 0)
(0.248083 0.0100601 0)
(0.254871 0.00846223 0)
(0.259494 0.00823476 0)
(0.262947 0.00677505 0)
(0.262301 0.00591336 0)
(0.256508 0.0050536 0)
(0.24228 -0.00240547 0)
(0.202209 -0.0146972 0)
(0.149232 -0.0344434 0)
)
;

boundaryField
{
    movingWall
    {
        type            fixedValue;
        value           uniform (1 0 0);
    }
    fixedWalls
    {
        type            noSlip;
    }
    frontAndBack
    {
        type            empty;
    }
}


// ************************************************************************* //
