/*--------------------------------*- C++ -*----------------------------------*\
| =========                 |                                                 |
| \\      /  F ield         | OpenFOAM: The Open Source CFD Toolbox           |
|  \\    /   O peration     | Version:  5.0                                   |
|   \\  /    A nd           | Web:      www.OpenFOAM.org                      |
|    \\/     M anipulation  |                                                 |
\*---------------------------------------------------------------------------*/
FoamFile
{
    version     2.0;
    format      ascii;
    class       volScalarField;
    location    "1";
    object      k;
}
// * * * * * * * * * * * * * * * * * * * * * * * * * * * * * * * * * * * * * //

dimensions      [0 2 -2 0 0 0 0];

internalField   nonuniform List<scalar> 
400
(
5.4082e-07
4.93022e-06
9.36648e-06
1.15054e-05
1.25563e-05
1.32442e-05
1.3869e-05
1.45451e-05
1.53231e-05
1.62236e-05
1.72393e-05
1.835e-05
1.96247e-05
2.17034e-05
2.36565e-05
2.44401e-05
2.24661e-05
1.59932e-05
5.76165e-06
6.02989e-07
5.59773e-06
9.63254e-05
0.000178275
0.000214563
0.00023242
0.000244375
0.000255242
0.000266931
0.000280337
0.000295881
0.000313459
0.000332222
0.000350345
0.00036319
0.000368092
0.000358057
0.00031599
0.000225114
7.8758e-05
4.5823e-06
1.43784e-05
0.000233179
0.000436317
0.000529897
0.000574357
0.000597652
0.000613278
0.000627213
0.000641823
0.000657849
0.000675137
0.000692652
0.000706144
0.000710838
0.000699488
0.000653953
0.00055378
0.000370625
0.000113764
7.00149e-06
2.08283e-05
0.000319406
0.000595384
0.000725903
0.000788872
0.000820172
0.000837676
0.000850433
0.000862395
0.00087489
0.000887794
0.000898466
0.000902422
0.000894308
0.000859386
0.000779434
0.000629392
0.000390679
0.000107561
7.05234e-06
2.4513e-05
0.00036742
0.00068726
0.000841494
0.000916935
0.000953915
0.000972813
0.000984469
0.000994062
0.00100344
0.00101216
0.00101624
0.00101288
0.000990048
0.000932216
0.000817732
0.000626367
0.000338679
7.85129e-05
5.73302e-06
2.63765e-05
0.000392801
0.000739116
0.000908873
0.000992758
0.00103352
0.00105346
0.00106442
0.00107244
0.00107978
0.00108483
0.00108562
0.00107459
0.00103802
0.000955947
0.000802881
0.000550317
0.00021541
3.82261e-05
3.50143e-06
2.73125e-05
0.000406346
0.000768047
0.000947473
0.00103671
0.00107978
0.00110032
0.0011109
0.00111808
0.00112435
0.0011277
0.00112614
0.00110835
0.00105653
0.000941988
0.000724997
0.000368576
7.56591e-05
1.2919e-05
2.38904e-06
2.78935e-05
0.000414624
0.000784883
0.000969717
0.00106184
0.00110603
0.00112672
0.0011371
0.00114402
0.00115009
0.00115307
0.00114953
0.00112414
0.00105026
0.00088479
0.000553798
0.000142589
2.76205e-05
1.22829e-05
4.89898e-06
2.84312e-05
0.000421273
0.00079617
0.000983424
0.00107652
0.00112081
0.00114125
0.00115142
0.00115839
0.00116468
0.00116758
0.0011614
0.00112452
0.00101998
0.000770212
0.000303531
5.80981e-05
3.5968e-05
4.8262e-05
1.81023e-05
2.90917e-05
0.00042821
0.000805623
0.000993218
0.00108578
0.00112926
0.001149
0.00115877
0.00116571
0.0011719
0.00117413
0.00116316
0.00111211
0.000961133
0.000601679
0.00015756
6.00136e-05
0.000108715
0.000151595
4.55549e-05
2.99937e-05
0.000436549
0.000815289
0.00100164
0.00109239
0.00113419
0.00115268
0.00116163
0.00116803
0.00117305
0.00117371
0.00115748
0.00108815
0.000893584
0.000465908
0.000123189
8.88182e-05
0.000261766
0.000358412
7.90361e-05
3.12524e-05
0.000447119
0.000826347
0.00100995
0.00109763
0.00113682
0.00115331
0.00116103
0.00116666
0.00117052
0.00116925
0.001146
0.00106352
0.00084627
0.000404648
0.000121791
0.000109244
0.000355025
0.000654973
0.000111819
3.30815e-05
0.000461011
0.000839562
0.00101856
0.00110168
0.00113734
0.00115188
0.00115841
0.00116274
0.00116499
0.00116093
0.00113361
0.00104818
0.000839459
0.000429875
0.000129958
9.68482e-05
0.00035497
0.000975743
0.000144212
3.56832e-05
0.000479122
0.000855063
0.00102693
0.00110394
0.00113589
0.00114826
0.00115346
0.00115696
0.00115866
0.0011538
0.00112664
0.00104786
0.000862036
0.000505828
0.000168731
0.000103713
0.00036638
0.00113577
0.000174754
3.92474e-05
0.000502255
0.000871815
0.00103325
0.00110324
0.0011319
0.00114318
0.00114924
0.0011548
0.00115897
0.00115657
0.0011328
0.00106226
0.000906539
0.000632226
0.000268413
0.000176139
0.000563733
0.00120737
0.000208829
4.5493e-05
0.000532861
0.000886345
0.00103485
0.00110083
0.00113046
0.00114547
0.00115586
0.00116644
0.00117664
0.00118116
0.00116681
0.00111131
0.000986505
0.000771115
0.000451325
0.000394392
0.000970811
0.00123605
0.000225033
5.14895e-05
0.000560728
0.00089273
0.00103809
0.00110913
0.00114884
0.00117733
0.00120368
0.00123184
0.00126095
0.00128582
0.00129486
0.00126877
0.00118683
0.00102978
0.000778908
0.000825591
0.00138198
0.00123186
0.000231638
6.62715e-05
0.000590116
0.00090824
0.00107386
0.00118504
0.0012713
0.0013507
0.00142689
0.00150608
0.00158578
0.00166115
0.00173019
0.0017657
0.00176042
0.00170097
0.00155658
0.00158227
0.00177458
0.00116979
0.000229725
6.78769e-05
0.000577683
0.00101375
0.00135856
0.00165382
0.0019025
0.00214562
0.00236058
0.00256973
0.00277188
0.00294237
0.00314021
0.00326324
0.00343377
0.00346178
0.00341841
0.00316908
0.00235041
0.000869437
0.000229442
3.41841e-05
0.000111253
0.000216827
0.000297231
0.0003557
0.000402953
0.000434755
0.000468782
0.000488687
0.000518457
0.000535507
0.000563237
0.000586311
0.000608595
0.000631304
0.000616642
0.000568257
0.000478584
0.0003821
0.000205549
)
;

boundaryField
{
    movingWall
    {
        type            kqRWallFunction;
        value           nonuniform List<scalar> 
20
(
3.41841e-05
0.000111253
0.000216827
0.000297231
0.0003557
0.000402953
0.000434755
0.000468782
0.000488687
0.000518457
0.000535507
0.000563237
0.000586311
0.000608595
0.000631304
0.000616642
0.000568257
0.000478584
0.0003821
0.000205549
)
;
    }
    fixedWalls
    {
        type            kqRWallFunction;
        value           nonuniform List<scalar> 
60
(
5.4082e-07
5.59773e-06
1.43784e-05
2.08283e-05
2.4513e-05
2.63765e-05
2.73125e-05
2.78935e-05
2.84312e-05
2.90917e-05
2.99937e-05
3.12524e-05
3.30815e-05
3.56832e-05
3.92474e-05
4.5493e-05
5.14895e-05
6.62715e-05
6.78769e-05
3.41841e-05
6.02989e-07
4.5823e-06
7.00149e-06
7.05234e-06
5.73302e-06
3.50143e-06
2.38904e-06
4.89898e-06
1.81023e-05
4.55549e-05
7.90361e-05
0.000111819
0.000144212
0.000174754
0.000208829
0.000225033
0.000231638
0.000229725
0.000229442
0.000205549
5.4082e-07
4.93022e-06
9.36648e-06
1.15054e-05
1.25563e-05
1.32442e-05
1.3869e-05
1.45451e-05
1.53231e-05
1.62236e-05
1.72393e-05
1.835e-05
1.96247e-05
2.17034e-05
2.36565e-05
2.44401e-05
2.24661e-05
1.59932e-05
5.76165e-06
6.02989e-07
)
;
    }
    frontAndBack
    {
        type            empty;
    }
}


// ************************************************************************* //
