/*--------------------------------*- C++ -*----------------------------------*\
| =========                 |                                                 |
| \\      /  F ield         | OpenFOAM: The Open Source CFD Toolbox           |
|  \\    /   O peration     | Version:  5.0                                   |
|   \\  /    A nd           | Web:      www.OpenFOAM.org                      |
|    \\/     M anipulation  |                                                 |
\*---------------------------------------------------------------------------*/
FoamFile
{
    version     2.0;
    format      ascii;
    class       volScalarField;
    location    "1";
    object      nut;
}
// * * * * * * * * * * * * * * * * * * * * * * * * * * * * * * * * * * * * * //

dimensions      [0 2 -1 0 0 0 0];

internalField   nonuniform List<scalar> 
400
(
4.22516e-09
3.85173e-08
7.31756e-08
8.9886e-08
9.80964e-08
1.0347e-07
1.08351e-07
1.13634e-07
1.19712e-07
1.26747e-07
1.34682e-07
1.4336e-07
1.53318e-07
1.69558e-07
1.84816e-07
1.90938e-07
1.75517e-07
1.24947e-07
4.50129e-08
4.71085e-09
4.37323e-08
2.73745e-06
5.89916e-06
7.11633e-06
7.72096e-06
8.1773e-06
8.62924e-06
9.14142e-06
9.75943e-06
1.05241e-05
1.14652e-05
1.25719e-05
1.37265e-05
1.45076e-05
1.49484e-05
1.46795e-05
1.28878e-05
8.4608e-06
1.95791e-06
3.57992e-08
1.12331e-07
8.9664e-06
2.60282e-05
3.42516e-05
3.79193e-05
3.9922e-05
4.14359e-05
4.29228e-05
4.45835e-05
4.65053e-05
4.86903e-05
5.10111e-05
5.29836e-05
5.38068e-05
5.29795e-05
4.81968e-05
3.70387e-05
1.89321e-05
2.96685e-06
5.46992e-08
1.62721e-07
1.29275e-05
4.2547e-05
6.03578e-05
6.87021e-05
7.27784e-05
7.51666e-05
7.70674e-05
7.89628e-05
8.10047e-05
8.3147e-05
8.49732e-05
8.5683e-05
8.4371e-05
7.86549e-05
6.58525e-05
4.47298e-05
1.93997e-05
2.59634e-06
5.50964e-08
1.91508e-07
1.50405e-05
5.22181e-05
7.75243e-05
9.0191e-05
9.62255e-05
9.9292e-05
0.000101244
0.000102903
0.00010452
0.000105907
0.000106431
0.00010529
0.000100305
8.88362e-05
6.88006e-05
4.15861e-05
1.48003e-05
1.70292e-06
4.47892e-08
2.06066e-07
1.61259e-05
5.74943e-05
8.75811e-05
0.000103364
0.000110852
0.000114396
0.00011628
0.000117597
0.000118624
0.000119112
0.000118392
0.00011486
0.000105873
8.8564e-05
6.19407e-05
3.10083e-05
7.59303e-06
7.10848e-07
2.73549e-08
2.13379e-07
1.66923e-05
6.03313e-05
9.31834e-05
0.00011089
0.000119295
0.000123094
0.000124869
0.000125849
0.000126428
0.00012611
0.000124052
0.000117905
0.000104441
8.03465e-05
4.73036e-05
1.58268e-05
1.94416e-06
1.94921e-07
1.86643e-08
2.17918e-07
1.70341e-05
6.19287e-05
9.62788e-05
0.000115021
0.000123899
0.000127781
0.000129426
0.000130207
0.0001304
0.000129381
0.000125937
0.000116829
9.74367e-05
6.56974e-05
2.79981e-05
4.26972e-06
5.0361e-07
1.5539e-07
3.82733e-08
2.22119e-07
1.73111e-05
6.29772e-05
9.80961e-05
0.000117295
0.00012633
0.000130179
0.000131722
0.000132347
0.000132225
0.000130568
0.00012541
0.000112253
8.62718e-05
4.74614e-05
1.14718e-05
1.31205e-06
5.86867e-07
5.83199e-07
1.41424e-07
2.27279e-07
1.76075e-05
6.38558e-05
9.93442e-05
0.000118642
0.000127624
0.000131365
0.000132808
0.000133296
0.00013287
0.00013038
0.000123118
0.000105847
7.34055e-05
3.11221e-05
4.92625e-06
1.24424e-06
1.81577e-06
1.88775e-06
3.55898e-07
2.34326e-07
1.79745e-05
6.4773e-05
0.000100406
0.00011957
0.000128353
0.000131924
0.000133241
0.00013356
0.000132697
0.000129359
0.00012021
9.93659e-05
6.33501e-05
2.19869e-05
3.70468e-06
1.95448e-06
5.18413e-06
5.22527e-06
6.1747e-07
2.44159e-07
1.84528e-05
6.58543e-05
0.000101477
0.000120323
0.000128778
0.000132094
0.00013325
0.000133397
0.000132178
0.000128142
0.000117492
9.49955e-05
5.88194e-05
1.9364e-05
3.85777e-06
2.82788e-06
9.23374e-06
1.16405e-05
8.7359e-07
2.5845e-07
1.91001e-05
6.71941e-05
0.000102638
0.000120956
0.000128935
0.000131977
0.000132968
0.000132906
0.000131397
0.000126872
0.000115805
9.39216e-05
5.98035e-05
2.18919e-05
4.65564e-06
2.95299e-06
1.11885e-05
2.06849e-05
1.12666e-06
2.78775e-07
1.99678e-05
6.88326e-05
0.000103832
0.000121336
0.00012873
0.000131425
0.000132195
0.000131944
0.000130305
0.00012583
0.000115396
9.53814e-05
6.46709e-05
2.89313e-05
7.20848e-06
3.69701e-06
1.26233e-05
2.60731e-05
1.36527e-06
3.0662e-07
2.11028e-05
7.0691e-05
0.000104709
0.000121057
0.000127722
0.000129985
0.000130609
0.000130363
0.000128924
0.000125002
0.000115951
9.9047e-05
7.28286e-05
4.10181e-05
1.37685e-05
7.55637e-06
2.09102e-05
2.78627e-05
1.63148e-06
3.55414e-07
2.26862e-05
7.22978e-05
0.00010439
0.000119228
0.000124957
0.000126826
0.000127148
0.000126818
0.000125721
0.000122851
0.000116183
0.000103
8.26594e-05
5.64473e-05
2.80419e-05
2.10431e-05
3.87659e-05
2.79321e-05
1.75807e-06
4.02262e-07
2.4162e-05
7.20847e-05
0.000101034
0.00011311
0.000117302
0.000118251
0.000118209
0.000117956
0.000117561
0.000116387
0.000113162
0.000105977
9.30096e-05
7.40391e-05
5.19849e-05
4.8423e-05
5.62593e-05
2.64521e-05
1.80967e-06
5.17746e-07
2.53027e-05
6.67856e-05
8.75608e-05
9.52472e-05
9.76277e-05
9.82248e-05
9.85119e-05
9.89424e-05
9.96973e-05
0.0001004
0.000100869
9.98226e-05
9.61407e-05
8.97138e-05
7.85652e-05
7.18739e-05
5.85696e-05
2.13891e-05
1.79472e-06
5.30289e-07
2.02492e-05
4.35087e-05
5.49543e-05
6.1106e-05
6.48939e-05
6.78629e-05
7.02918e-05
7.24539e-05
7.47869e-05
7.65868e-05
7.91242e-05
8.06057e-05
8.27005e-05
8.2565e-05
7.96731e-05
6.95241e-05
4.18692e-05
1.05944e-05
1.79252e-06
2.67063e-07
8.69164e-07
1.69396e-06
2.32212e-06
2.7789e-06
3.14807e-06
3.39652e-06
3.66236e-06
3.81786e-06
4.05044e-06
4.18365e-06
4.40029e-06
4.58055e-06
4.75465e-06
4.93206e-06
4.81751e-06
4.4395e-06
3.73894e-06
2.98516e-06
1.60585e-06
)
;

boundaryField
{
    movingWall
    {
        type            nutkWallFunction;
        Cmu             0.09;
        kappa           0.41;
        E               9.8;
        value           uniform 0;
    }
    fixedWalls
    {
        type            nutkWallFunction;
        Cmu             0.09;
        kappa           0.41;
        E               9.8;
        value           uniform 0;
    }
    frontAndBack
    {
        type            empty;
    }
}


// ************************************************************************* //
