/*--------------------------------*- C++ -*----------------------------------*\
| =========                 |                                                 |
| \\      /  F ield         | OpenFOAM: The Open Source CFD Toolbox           |
|  \\    /   O peration     | Version:  5.0                                   |
|   \\  /    A nd           | Web:      www.OpenFOAM.org                      |
|    \\/     M anipulation  |                                                 |
\*---------------------------------------------------------------------------*/
FoamFile
{
    version     2.0;
    format      ascii;
    class       volScalarField;
    location    "1";
    object      omega;
}
// * * * * * * * * * * * * * * * * * * * * * * * * * * * * * * * * * * * * * //

dimensions      [0 0 -1 0 0 0 0];

internalField   nonuniform List<scalar> 
400
(
128
128
128
128
128
128
128
128
128
128
128
128
128
128
128
128
128
128
128
128
128
35.188
30.2203
30.1507
30.1025
29.8845
29.5788
29.2001
28.7248
28.1146
27.3399
26.4257
25.5233
25.0345
24.6241
24.3917
24.5185
26.6067
40.2256
128
128
26.0059
16.7633
15.4707
15.1468
14.9705
14.8007
14.6126
14.396
14.1457
13.8659
13.5785
13.3276
13.2109
13.203
13.5684
14.9514
19.5766
38.345
128
128
24.7074
13.9936
12.0267
11.4825
11.2694
11.1443
11.0349
10.9215
10.8005
10.6774
10.5735
10.5321
10.5997
10.926
11.8361
14.071
20.1384
41.4279
128
128
24.4287
13.1613
10.8546
10.1666
9.91332
9.7975
9.7237
9.66022
9.6005
9.55705
9.54839
9.61996
9.87035
10.4936
11.8855
15.0619
22.8833
46.1048
128
128
24.3584
12.8555
10.3775
9.60451
9.32336
9.20891
9.15391
9.1196
9.10262
9.10766
9.16967
9.35566
9.80436
10.7939
12.9621
17.7474
28.3694
53.7753
128
128
24.3433
12.7305
10.1678
9.34901
9.05135
8.93888
8.89651
8.8843
8.89321
8.94216
9.07791
9.40039
10.116
11.7241
15.3265
23.2881
38.916
66.2784
128
128
24.3408
12.674
10.072
9.23173
8.92687
8.81758
8.7857
8.78622
8.81971
8.91224
9.12784
9.62212
10.7789
13.4677
19.7798
33.3955
54.845
79.0456
128
128
24.3355
12.6422
10.0251
9.1779
8.87204
8.76673
8.7413
8.75267
8.80834
8.94234
9.26083
10.0177
11.8229
16.2282
26.4588
44.2804
61.2882
82.7538
128
128
24.3198
12.6163
9.99774
9.1518
8.84834
8.74661
8.72516
8.74522
8.81987
9.00543
9.44748
10.5068
13.0935
19.3329
31.9837
48.2331
59.8729
80.3048
128
128
24.2872
12.5869
9.97586
9.13603
8.83646
8.7374
8.71823
8.74538
8.84012
9.07325
9.62877
10.951
14.1055
21.1902
33.2523
45.4434
50.4938
68.5921
128
128
24.2303
12.5481
9.95244
9.12237
8.82776
8.73094
8.71321
8.74583
8.85561
9.12464
9.75386
11.1954
14.3876
20.8969
31.5702
38.6311
38.4486
56.2667
128
128
24.1366
12.4946
9.92382
9.10812
8.82105
8.72788
8.712
8.74855
8.8662
9.1504
9.78894
11.1601
14.037
19.6363
27.9142
32.7967
31.7263
47.1717
128
128
23.9948
12.4223
9.89031
9.09822
8.82384
8.73702
8.72549
8.76861
8.89189
9.1695
9.76321
10.986
13.3296
17.4838
23.4073
28.0532
29.0242
43.561
128
128
23.8004
12.3328
9.86784
9.11336
8.86226
8.79476
8.7991
8.85834
8.98957
9.25241
9.76964
10.7248
12.4476
15.4133
19.4947
23.31
26.9597
43.3327
128
128
23.4883
12.2596
9.91332
9.23298
9.04676
9.03175
9.09069
9.19773
9.35916
9.61456
10.0429
10.7894
11.9346
13.6608
16.0947
18.7421
25.0429
44.2521
128
128
23.207
12.3845
10.2747
9.80578
9.79394
9.95625
10.1827
10.4433
10.7259
11.0479
11.4425
11.9721
12.7603
13.9086
14.9834
17.0496
24.5644
46.5697
128
128
23.3223
13.5993
12.2642
12.4417
13.0219
13.7511
14.4844
15.2218
15.9059
16.5454
17.1529
17.6884
18.3109
18.96
19.8126
22.0145
30.2987
54.6909
128
128
28.5287
23.3
24.7217
27.0647
29.3171
31.617
33.5825
35.4672
37.0637
38.4187
39.6871
40.4841
41.5205
41.928
42.9055
45.5825
56.137
82.0654
128
128
128
128
128
128
128
128
128
128
128
128
128
128
128
128
128
128
128
128
128
)
;

boundaryField
{
    movingWall
    {
        Cmu             0.09;
        kappa           0.41;
        E               9.8;
        beta1           0.075;
        blended         false;
        type            omegaWallFunction;
        value           nonuniform List<scalar> 
20
(
128
128
128
128
128
128
128
128
128
128
128
128
128
128
128
128
128
128
128
128
)
;
    }
    fixedWalls
    {
        Cmu             0.09;
        kappa           0.41;
        E               9.8;
        beta1           0.075;
        blended         false;
        type            omegaWallFunction;
        value           nonuniform List<scalar> 
60
(
128
128
128
128
128
128
128
128
128
128
128
128
128
128
128
128
128
128
128
128
128
128
128
128
128
128
128
128
128
128
128
128
128
128
128
128
128
128
128
128
128
128
128
128
128
128
128
128
128
128
128
128
128
128
128
128
128
128
128
128
)
;
    }
    frontAndBack
    {
        type            empty;
    }
}


// ************************************************************************* //
