/*--------------------------------*- C++ -*----------------------------------*\
| =========                 |                                                 |
| \\      /  F ield         | OpenFOAM: The Open Source CFD Toolbox           |
|  \\    /   O peration     | Version:  5.0                                   |
|   \\  /    A nd           | Web:      www.OpenFOAM.org                      |
|    \\/     M anipulation  |                                                 |
\*---------------------------------------------------------------------------*/
FoamFile
{
    version     2.0;
    format      ascii;
    class       volScalarField;
    location    "1";
    object      p;
}
// * * * * * * * * * * * * * * * * * * * * * * * * * * * * * * * * * * * * * //

dimensions      [0 2 -2 0 0 0 0];

internalField   nonuniform List<scalar> 
400
(
3.00975e-08
1.90358e-06
1.08407e-05
3.10655e-05
6.44442e-05
0.000112486
0.000176826
0.00025931
0.000361979
0.000486962
0.000636241
0.000810302
0.00101084
0.00123563
0.00147555
0.00171885
0.00194577
0.00213311
0.00226162
0.00232316
-2.61537e-06
-1.42601e-06
6.67482e-06
2.59207e-05
5.81195e-05
0.000104672
0.000167221
0.000247601
0.000347863
0.000470211
0.000616776
0.000789166
0.000988617
0.00121283
0.00145644
0.00170751
0.00194761
0.00215254
0.00229725
0.00236629
-1.22036e-05
-1.2846e-05
-7.10275e-06
1.06496e-05
4.1812e-05
8.65229e-05
0.000146139
0.000222574
0.00031803
0.000434976
0.000576036
0.000743737
0.000940007
0.00116484
0.0014189
0.00169182
0.00196627
0.00221099
0.00238608
0.00246625
-3.45288e-05
-3.74962e-05
-3.62505e-05
-2.20182e-05
6.90575e-06
4.87437e-05
0.000103993
0.000174527
0.000262806
0.000371794
0.00050501
0.00066648
0.000859956
0.0010866
0.00136407
0.00167712
0.0020104
0.00231869
0.00253477
0.0026258
-7.24901e-05
-7.8068e-05
-8.32555e-05
-7.56861e-05
-5.20161e-05
-1.54766e-05
3.31561e-05
9.53584e-05
0.000173726
0.000271786
0.00039423
0.000547264
0.000739586
0.000984382
0.00127855
0.0016442
0.00206211
0.0024644
0.00273192
0.00283712
-0.000126659
-0.000134823
-0.000146793
-0.000147711
-0.000132189
-0.000103965
-6.49692e-05
-1.43962e-05
5.01704e-05
0.000132508
0.000238085
0.00037485
0.000554799
0.000794924
0.00111462
0.00153999
0.00206923
0.00260636
0.00293703
0.00308155
-0.000195955
-0.000206579
-0.000224924
-0.000234823
-0.000229264
-0.000211991
-0.000185829
-0.000150802
-0.000105094
-4.52928e-05
3.40138e-05
0.000141525
0.000291656
0.000507787
0.000823768
0.00128047
0.00191388
0.00261226
0.00306885
0.00331531
-0.000278234
-0.000291222
-0.000315536
-0.000334348
-0.000339674
-0.000335253
-0.000324724
-0.00030914
-0.000287796
-0.000258556
-0.00021749
-0.000157162
-6.31232e-05
8.93244e-05
0.00033678
0.000739663
0.00132912
0.00209887
0.00290314
0.0033548
-0.000370839
-0.000386191
-0.000416093
-0.00044351
-0.000459961
-0.000469441
-0.000476498
-0.000483453
-0.000491282
-0.000500226
-0.000509761
-0.000516853
-0.000512115
-0.000482612
-0.000439212
-0.000407166
-0.000237668
0.000476079
0.0018983
0.00264789
-0.000471064
-0.000488759
-0.000523837
-0.00055924
-0.000586348
-0.000609737
-0.00063501
-0.000665947
-0.000705638
-0.000757619
-0.000826607
-0.000917663
-0.0010336
-0.00118994
-0.00149195
-0.00210522
-0.00278475
-0.00247203
-0.00104403
0.000507365
-0.000576534
-0.000596379
-0.000636036
-0.00067834
-0.000714766
-0.000750797
-0.000793166
-0.000847076
-0.000917754
-0.00101223
-0.00114109
-0.00131996
-0.00157183
-0.00194927
-0.0026067
-0.00385538
-0.00559554
-0.00577579
-0.00479207
-0.00256551
-0.000685412
-0.000707035
-0.000750298
-0.000797756
-0.000841114
-0.000887083
-0.000943472
-0.00101652
-0.00111304
-0.00124257
-0.00142002
-0.00166911
-0.0020299
-0.00258135
-0.00345069
-0.00491163
-0.00728012
-0.00764293
-0.00700045
-0.00497463
-0.000796822
-0.000819662
-0.00086495
-0.000914893
-0.000961587
-0.0010134
-0.00107905
-0.00116509
-0.00127886
-0.00143066
-0.00163646
-0.00192175
-0.00232789
-0.00292474
-0.00386002
-0.00497195
-0.00750345
-0.00744789
-0.00743665
-0.0053088
-0.000911693
-0.000934573
-0.000979158
-0.00102769
-0.00107285
-0.00112533
-0.00119459
-0.00128648
-0.00140793
-0.00156795
-0.00178043
-0.0020662
-0.00245502
-0.00297937
-0.00376921
-0.00462771
-0.00584657
-0.0061277
-0.00631314
-0.00443918
-0.00103225
-0.00105329
-0.00109262
-0.00113422
-0.00117175
-0.00121933
-0.00128622
-0.00137792
-0.00149905
-0.00165653
-0.00186077
-0.00212648
-0.0024753
-0.00287194
-0.00344597
-0.00398478
-0.00461855
-0.00474907
-0.00503458
-0.00319796
-0.0011695
-0.00118085
-0.00120538
-0.00123051
-0.00125353
-0.0012919
-0.00135282
-0.00143946
-0.00155506
-0.00170437
-0.00189454
-0.00213175
-0.00242001
-0.00274717
-0.00312979
-0.00343451
-0.00373474
-0.00367713
-0.00406403
-0.00175878
-0.00133831
-0.00131186
-0.00130914
-0.00130678
-0.00131245
-0.00134106
-0.00139392
-0.0014723
-0.00157947
-0.00171945
-0.00189845
-0.00211824
-0.00237702
-0.00265684
-0.00293853
-0.00311142
-0.00322696
-0.00284286
-0.00288336
0.000280641
-0.00159109
-0.00144552
-0.0013971
-0.00134727
-0.00133329
-0.00135356
-0.00140056
-0.00147334
-0.00157447
-0.00170645
-0.00187771
-0.0020885
-0.00233983
-0.00260144
-0.00284233
-0.00292033
-0.0028003
-0.00190675
-0.000886149
0.00417311
-0.0020052
-0.00157156
-0.00143463
-0.00132383
-0.00128534
-0.00129691
-0.00133754
-0.00140584
-0.00150051
-0.00162466
-0.00178837
-0.00198921
-0.00223716
-0.00248749
-0.00272521
-0.00276551
-0.00238594
-0.000403736
0.00354666
0.013549
-0.00268129
-0.000537786
-0.000410555
-0.000546821
-0.000651699
-0.000731393
-0.000829626
-0.000941127
-0.00107705
-0.00123222
-0.00142132
-0.00165135
-0.00190893
-0.00218135
-0.00235072
-0.00228958
-0.00118158
0.00286636
0.0129518
0.0304121
)
;

boundaryField
{
    movingWall
    {
        type            zeroGradient;
    }
    fixedWalls
    {
        type            zeroGradient;
    }
    frontAndBack
    {
        type            empty;
    }
}


// ************************************************************************* //
