/*--------------------------------*- C++ -*----------------------------------*\
| =========                 |                                                 |
| \\      /  F ield         | OpenFOAM: The Open Source CFD Toolbox           |
|  \\    /   O peration     | Version:  5.0                                   |
|   \\  /    A nd           | Web:      www.OpenFOAM.org                      |
|    \\/     M anipulation  |                                                 |
\*---------------------------------------------------------------------------*/
FoamFile
{
    version     2.0;
    format      ascii;
    class       surfaceScalarField;
    location    "1";
    object      phi;
}
// * * * * * * * * * * * * * * * * * * * * * * * * * * * * * * * * * * * * * //

dimensions      [0 3 -1 0 0 0 0];

internalField   nonuniform List<scalar> 
760
(
-2.16048e-08
2.16018e-08
-6.59547e-08
4.43498e-08
-1.30774e-07
6.48195e-08
-2.05286e-07
7.45113e-08
-2.82088e-07
7.68025e-08
-3.5796e-07
7.58712e-08
-4.31572e-07
7.36121e-08
-5.0193e-07
7.03585e-08
-5.67603e-07
6.56722e-08
-6.26256e-07
5.86537e-08
-6.74305e-07
4.80486e-08
-7.06579e-07
3.22735e-08
-7.18133e-07
1.15542e-08
-7.00831e-07
-1.73017e-08
-6.47911e-07
-5.29203e-08
-5.55718e-07
-9.21935e-08
-4.27706e-07
-1.28012e-07
-2.781e-07
-1.49606e-07
-1.28198e-07
-1.49903e-07
-1.28198e-07
-4.17703e-08
6.33721e-08
-1.08389e-07
1.10968e-07
-1.91991e-07
1.48422e-07
-2.84502e-07
1.67022e-07
-3.79367e-07
1.71667e-07
-4.72628e-07
1.69132e-07
-5.62177e-07
1.63161e-07
-6.46545e-07
1.54726e-07
-7.24036e-07
1.43163e-07
-7.92197e-07
1.26815e-07
-8.47524e-07
1.03376e-07
-8.85512e-07
7.02619e-08
-8.99132e-07
2.51738e-08
-8.81977e-07
-3.44565e-08
-8.26518e-07
-1.08379e-07
-7.2709e-07
-1.91622e-07
-5.82365e-07
-2.72736e-07
-3.97205e-07
-3.34766e-07
-1.85664e-07
-3.61444e-07
-3.13862e-07
-6.21319e-08
1.25504e-07
-1.41474e-07
1.9031e-07
-2.25719e-07
2.32667e-07
-3.14231e-07
2.55535e-07
-4.05607e-07
2.63043e-07
-4.97427e-07
2.60951e-07
-5.87541e-07
2.53276e-07
-6.74218e-07
2.41402e-07
-7.55739e-07
2.24684e-07
-8.29958e-07
2.01034e-07
-8.93929e-07
1.67346e-07
-9.43577e-07
1.1991e-07
-9.73457e-07
5.50534e-08
-9.76908e-07
-3.1006e-08
-9.4459e-07
-1.40697e-07
-8.65945e-07
-2.70267e-07
-7.28073e-07
-4.10608e-07
-5.18576e-07
-5.44263e-07
-2.45314e-07
-6.34707e-07
-5.59175e-07
-7.42131e-08
1.99717e-07
-1.61245e-07
2.77342e-07
-2.46131e-07
3.17553e-07
-3.31508e-07
3.40911e-07
-4.19072e-07
3.50608e-07
-5.08336e-07
3.50215e-07
-5.97988e-07
3.42928e-07
-6.86685e-07
3.30099e-07
-7.73136e-07
3.11136e-07
-8.5586e-07
2.83757e-07
-9.32807e-07
2.44293e-07
-1.00087e-06
1.87977e-07
-1.05502e-06
1.09197e-07
-1.08959e-06
3.5632e-09
-1.08994e-06
-1.40343e-07
-1.03753e-06
-3.22677e-07
-9.02597e-07
-5.45542e-07
-6.53532e-07
-7.93327e-07
-3.04318e-07
-9.83921e-07
-8.63493e-07
-7.83615e-08
2.78079e-07
-1.69076e-07
3.68057e-07
-2.55749e-07
4.04226e-07
-3.40864e-07
4.26027e-07
-4.27092e-07
4.36835e-07
-5.1539e-07
4.38513e-07
-6.05643e-07
4.33181e-07
-6.9746e-07
4.21916e-07
-7.90512e-07
4.04188e-07
-8.84503e-07
3.77748e-07
-9.78859e-07
3.38649e-07
-1.07211e-06
2.81224e-07
-1.16061e-06
1.97702e-07
-1.23571e-06
7.86645e-08
-1.28387e-06
-9.21877e-08
-1.27103e-06
-3.35517e-07
-1.14282e-06
-6.73751e-07
-8.35197e-07
-1.10095e-06
-3.80989e-07
-1.43813e-06
-1.24448e-06
-7.79951e-08
3.56074e-07
-1.69712e-07
4.59773e-07
-2.58114e-07
4.92628e-07
-3.44442e-07
5.12355e-07
-4.31168e-07
5.2356e-07
-5.20002e-07
5.27348e-07
-6.11928e-07
5.25107e-07
-7.07766e-07
5.17753e-07
-8.08573e-07
5.04995e-07
-9.15768e-07
4.84943e-07
-1.03089e-06
4.53776e-07
-1.1549e-06
4.05231e-07
-1.28649e-06
3.29294e-07
-1.41807e-06
2.10239e-07
-1.53654e-06
2.6287e-08
-1.59264e-06
-2.79425e-07
-1.49599e-06
-7.70397e-07
-1.11387e-06
-1.48307e-06
-5.1713e-07
-2.03487e-06
-1.76161e-06
-7.59018e-08
4.31976e-07
-1.67199e-07
5.51071e-07
-2.56698e-07
5.82128e-07
-3.44411e-07
6.00067e-07
-4.32217e-07
6.11367e-07
-5.22083e-07
6.17213e-07
-6.15835e-07
6.1886e-07
-7.1551e-07
6.17428e-07
-8.23754e-07
6.13239e-07
-9.44069e-07
6.05258e-07
-1.0808e-06
5.90506e-07
-1.23851e-06
5.62942e-07
-1.42044e-06
5.11221e-07
-1.62547e-06
4.15275e-07
-1.83819e-06
2.39008e-07
-2.02073e-06
-9.68846e-08
-2.02371e-06
-7.67424e-07
-1.59181e-06
-1.91497e-06
-8.11898e-07
-2.81478e-06
-2.57351e-06
-7.3644e-08
5.0562e-07
-1.64001e-07
6.41427e-07
-2.53953e-07
6.7208e-07
-3.42521e-07
6.88636e-07
-4.30948e-07
6.99794e-07
-5.21173e-07
7.07439e-07
-6.15589e-07
7.13276e-07
-7.17262e-07
7.19101e-07
-8.30335e-07
7.26311e-07
-9.60434e-07
7.35357e-07
-1.11494e-06
7.4501e-07
-1.30278e-06
7.50785e-07
-1.53394e-06
7.42383e-07
-1.81897e-06
7.00303e-07
-2.16488e-06
5.84913e-07
-2.55175e-06
2.89988e-07
-2.78175e-06
-5.37424e-07
-2.38098e-06
-2.31573e-06
-1.33203e-06
-3.86373e-06
-3.90554e-06
-7.20087e-08
5.77629e-07
-1.61531e-07
7.3095e-07
-2.51502e-07
7.62051e-07
-3.40089e-07
7.77222e-07
-4.27942e-07
7.87647e-07
-5.16813e-07
7.9631e-07
-6.09363e-07
8.05825e-07
-7.09322e-07
8.1906e-07
-8.21884e-07
8.38873e-07
-9.54225e-07
8.67698e-07
-1.11609e-06
9.06879e-07
-1.32054e-06
9.55231e-07
-1.58545e-06
1.0073e-06
-1.93783e-06
1.05268e-06
-2.42102e-06
1.0681e-06
-3.02209e-06
8.91057e-07
-3.40589e-06
-1.53626e-07
-3.02337e-06
-2.69825e-06
-1.81119e-06
-5.07591e-06
-5.71674e-06
-7.15041e-08
6.49133e-07
-1.60885e-07
8.20331e-07
-2.50667e-07
8.51833e-07
-3.38318e-07
8.64873e-07
-4.2393e-07
8.73259e-07
-5.0894e-07
8.81321e-07
-5.95964e-07
8.92849e-07
-6.88869e-07
9.11965e-07
-7.9305e-07
9.43054e-07
-9.15904e-07
9.90552e-07
-1.06752e-06
1.0585e-06
-1.26222e-06
1.14993e-06
-1.52289e-06
1.26797e-06
-1.88781e-06
1.41759e-06
-2.39856e-06
1.57886e-06
-2.99358e-06
1.48608e-06
-3.25713e-06
1.09927e-07
-2.87156e-06
-3.08382e-06
-1.86232e-06
-6.08515e-06
-7.57905e-06
-7.27951e-08
7.21928e-07
-1.63215e-07
9.1075e-07
-2.52872e-07
9.41491e-07
-3.38622e-07
9.50624e-07
-4.20048e-07
9.54685e-07
-4.98213e-07
9.59486e-07
-5.75423e-07
9.70059e-07
-6.55102e-07
9.91645e-07
-7.41812e-07
1.02976e-06
-8.41396e-07
1.09014e-06
-9.61239e-07
1.17834e-06
-1.11155e-06
1.30024e-06
-1.30981e-06
1.46623e-06
-1.58936e-06
1.69714e-06
-1.93894e-06
1.92843e-06
-2.26668e-06
1.81382e-06
-2.3994e-06
2.42644e-07
-2.12822e-06
-3.355e-06
-1.40561e-06
-6.80776e-06
-8.98466e-06
-7.67201e-08
7.98648e-07
-1.70004e-07
1.00403e-06
-2.59874e-07
1.03136e-06
-3.4271e-07
1.03346e-06
-4.17791e-07
1.02977e-06
-4.85932e-07
1.02763e-06
-5.49044e-07
1.03317e-06
-6.09722e-07
1.05232e-06
-6.70881e-07
1.09092e-06
-7.35453e-07
1.15471e-06
-8.05899e-07
1.24879e-06
-8.84141e-07
1.37849e-06
-9.72143e-07
1.55423e-06
-1.07124e-06
1.79625e-06
-1.16205e-06
2.01924e-06
-1.13378e-06
1.78555e-06
-1.124e-06
2.32867e-07
-1.03979e-06
-3.43922e-06
-1.00917e-06
-6.83837e-06
-9.99383e-06
-8.48845e-08
8.83533e-07
-1.83473e-07
1.10262e-06
-2.73743e-07
1.12163e-06
-3.52197e-07
1.11191e-06
-4.18328e-07
1.0959e-06
-4.73103e-07
1.0824e-06
-5.18268e-07
1.07834e-06
-5.55598e-07
1.08965e-06
-5.86181e-07
1.12151e-06
-6.09874e-07
1.1784e-06
-6.24144e-07
1.26306e-06
-6.22184e-07
1.37653e-06
-5.88607e-07
1.52065e-06
-4.92622e-07
1.70026e-06
-3.19877e-07
1.84649e-06
-8.53083e-08
1.55099e-06
1.70012e-07
-2.24526e-08
-3.93504e-08
-3.22986e-06
-4.73423e-07
-6.4043e-06
-1.04673e-05
-9.90665e-08
9.82599e-07
-2.06014e-07
1.20957e-06
-2.95947e-07
1.21156e-06
-3.67226e-07
1.18319e-06
-4.20616e-07
1.14929e-06
-4.58079e-07
1.11986e-06
-4.81834e-07
1.10209e-06
-4.93171e-07
1.10099e-06
-4.91739e-07
1.12007e-06
-4.75372e-07
1.16203e-06
-4.3875e-07
1.22643e-06
-3.71181e-07
1.30896e-06
-2.52155e-07
1.40163e-06
-3.44871e-08
1.48259e-06
3.17884e-07
1.49412e-06
6.86637e-07
1.18223e-06
8.38421e-07
-1.74236e-07
4.71298e-07
-2.86273e-06
2.72318e-09
-5.93573e-06
-1.04645e-05
-1.20011e-07
1.10261e-06
-2.38982e-07
1.32854e-06
-3.25268e-07
1.29785e-06
-3.8324e-07
1.24116e-06
-4.17107e-07
1.18315e-06
-4.319e-07
1.13466e-06
-4.30854e-07
1.10105e-06
-4.14513e-07
1.08465e-06
-3.81667e-07
1.08723e-06
-3.29693e-07
1.11006e-06
-2.5349e-07
1.15023e-06
-1.43396e-07
1.19886e-06
1.84324e-08
1.2398e-06
2.51529e-07
1.24949e-06
5.92643e-07
1.15301e-06
9.568e-07
8.18075e-07
1.04627e-06
-2.63706e-07
6.23803e-07
-2.44027e-06
1.49845e-07
-5.46177e-06
-1.03147e-05
-1.65091e-07
1.2677e-06
-2.8591e-07
1.44936e-06
-3.5356e-07
1.3655e-06
-3.82729e-07
1.27033e-06
-3.87038e-07
1.18746e-06
-3.73232e-07
1.12085e-06
-3.42459e-07
1.07027e-06
-2.94851e-07
1.03704e-06
-2.29501e-07
1.02188e-06
-1.44203e-07
1.02476e-06
-3.63274e-08
1.04235e-06
9.81295e-08
1.06441e-06
2.63538e-07
1.07439e-06
4.69988e-07
1.04304e-06
7.13087e-07
9.09908e-07
9.58139e-07
5.73023e-07
9.91781e-07
-2.97348e-07
6.47138e-07
-2.09562e-06
3.10547e-07
-5.12518e-06
-1.00041e-05
-2.13489e-07
1.48119e-06
-3.21681e-07
1.55755e-06
-3.48567e-07
1.39239e-06
-3.33826e-07
1.25559e-06
-2.94079e-07
1.14772e-06
-2.35395e-07
1.06217e-06
-1.60496e-07
9.95373e-07
-7.05111e-08
9.47056e-07
3.5496e-08
9.15871e-07
1.59899e-07
9.0036e-07
3.04216e-07
8.98037e-07
4.68168e-07
9.00453e-07
6.46315e-07
8.96244e-07
8.31988e-07
8.57372e-07
1.00144e-06
7.40454e-07
1.13976e-06
4.34704e-07
1.10988e-06
-2.67463e-07
8.26879e-07
-1.81263e-06
5.62329e-07
-4.86063e-06
-9.44181e-06
-3.55835e-07
1.83703e-06
-3.36967e-07
1.53868e-06
-2.51805e-07
1.30722e-06
-1.45955e-07
1.14974e-06
-2.11827e-08
1.02294e-06
1.16862e-07
9.24122e-07
2.66586e-07
8.45649e-07
4.26821e-07
7.86821e-07
5.99273e-07
7.4342e-07
7.86447e-07
7.13186e-07
9.88349e-07
6.96134e-07
1.20472e-06
6.84077e-07
1.42554e-06
6.75428e-07
1.63815e-06
6.44764e-07
1.79907e-06
5.79533e-07
1.89704e-06
3.3673e-07
1.82952e-06
-1.99939e-07
1.54783e-06
-1.53094e-06
1.0493e-06
-4.36209e-06
-8.39252e-06
-3.94644e-07
2.23167e-06
-1.09789e-07
1.25383e-06
2.30683e-07
9.66751e-07
5.56206e-07
8.24221e-07
8.64849e-07
7.143e-07
1.15779e-06
6.31177e-07
1.44821e-06
5.55232e-07
1.72815e-06
5.06884e-07
2.01236e-06
4.5921e-07
2.29353e-06
4.32011e-07
2.58299e-06
4.0668e-07
2.87503e-06
3.92035e-07
3.16387e-06
3.86589e-07
3.44577e-06
3.62861e-07
3.6806e-06
3.44702e-07
3.82691e-06
1.90423e-07
3.75643e-06
-1.29465e-07
3.35586e-06
-1.13036e-06
2.20531e-06
-3.21154e-06
-6.18721e-06
2.23167e-06
3.4855e-06
4.45225e-06
5.27647e-06
5.99077e-06
6.62195e-06
7.17718e-06
7.68406e-06
8.14327e-06
8.57529e-06
8.98197e-06
9.374e-06
9.76059e-06
1.01235e-05
1.04682e-05
1.06586e-05
1.05291e-05
9.39875e-06
6.18721e-06
)
;

boundaryField
{
    movingWall
    {
        type            calculated;
        value           uniform 0;
    }
    fixedWalls
    {
        type            calculated;
        value           uniform 0;
    }
    frontAndBack
    {
        type            empty;
        value           nonuniform 0();
    }
}


// ************************************************************************* //
