/*--------------------------------*- C++ -*----------------------------------*\
| =========                 |                                                 |
| \\      /  F ield         | OpenFOAM: The Open Source CFD Toolbox           |
|  \\    /   O peration     | Version:  5.0                                   |
|   \\  /    A nd           | Web:      www.OpenFOAM.org                      |
|    \\/     M anipulation  |                                                 |
\*---------------------------------------------------------------------------*/
FoamFile
{
    version     2.0;
    format      ascii;
    class       volVectorField;
    location    "1";
    object      U;
}
// * * * * * * * * * * * * * * * * * * * * * * * * * * * * * * * * * * * * * //

dimensions      [0 1 -1 0 0 0 0];

internalField   nonuniform List<vector> 
400
(
(-0.000129027 0.000137188 0)
(-0.000776778 0.000313841 0)
(-0.00191836 0.000491776 0)
(-0.00335236 0.000568776 0)
(-0.00488442 0.000586053 0)
(-0.00641783 0.000585361 0)
(-0.00791615 0.000580003 0)
(-0.00935937 0.000569913 0)
(-0.0107245 0.000549497 0)
(-0.011975 0.000509388 0)
(-0.0130555 0.000437046 0)
(-0.0138834 0.00031518 0)
(-0.014299 0.000173169 0)
(-0.0142752 -8.57807e-05 0)
(-0.0135613 -0.000402048 0)
(-0.0120995 -0.000766987 0)
(-0.00986798 -0.00110653 0)
(-0.00705645 -0.00129228 0)
(-0.00403116 -0.00123656 0)
(-0.00116139 -0.00108597 0)
(-0.000294192 0.000764089 0)
(-0.00143568 0.00151466 0)
(-0.00296288 0.0021678 0)
(-0.00474948 0.00247729 0)
(-0.00665038 0.00254091 0)
(-0.00854453 0.00249328 0)
(-0.0103797 0.00240059 0)
(-0.0121254 0.00227593 0)
(-0.013752 0.002106 0)
(-0.0152191 0.00186286 0)
(-0.0164676 0.00150888 0)
(-0.0174148 0.00100151 0)
(-0.0179455 0.000307539 0)
(-0.0179242 -0.000607924 0)
(-0.0172073 -0.00174786 0)
(-0.0156534 -0.00300571 0)
(-0.0131927 -0.00415816 0)
(-0.00988532 -0.00487487 0)
(-0.00588271 -0.00494058 0)
(-0.00160113 -0.00419122 0)
(-0.00050316 0.00183894 0)
(-0.0020574 0.00299629 0)
(-0.00366883 0.00384128 0)
(-0.00537411 0.00428556 0)
(-0.00719393 0.00441634 0)
(-0.00904153 0.00436485 0)
(-0.0108707 0.00421706 0)
(-0.012647 0.00400042 0)
(-0.014338 0.00370202 0)
(-0.0159068 0.00328325 0)
(-0.0173033 0.00268872 0)
(-0.0184574 0.00185425 0)
(-0.0192739 0.000719058 0)
(-0.0196341 -0.000768317 0)
(-0.0193726 -0.0026226 0)
(-0.0182801 -0.00473317 0)
(-0.0161334 -0.00686291 0)
(-0.0127089 -0.00866602 0)
(-0.0078218 -0.00968451 0)
(-0.00207189 -0.00850218 0)
(-0.000616173 0.00323331 0)
(-0.00243167 0.00465705 0)
(-0.00410412 0.00548867 0)
(-0.00575358 0.0059627 0)
(-0.00749198 0.00614306 0)
(-0.00927328 0.00611869 0)
(-0.0110714 0.00596309 0)
(-0.0128623 0.00570586 0)
(-0.0146212 0.0053355 0)
(-0.0163221 0.00480811 0)
(-0.0179312 0.00405554 0)
(-0.0193981 0.00299322 0)
(-0.0206472 0.00152821 0)
(-0.0215745 -0.000430467 0)
(-0.0219748 -0.00292825 0)
(-0.0215106 -0.00598155 0)
(-0.0197146 -0.00947061 0)
(-0.0159676 -0.0130797 0)
(-0.00987267 -0.0157569 0)
(-0.00249185 -0.0139468 0)
(-0.000637805 0.00477065 0)
(-0.00256877 0.00644038 0)
(-0.00430129 0.00719989 0)
(-0.00595114 0.00765312 0)
(-0.00766277 0.00786128 0)
(-0.00941606 0.00787413 0)
(-0.0112071 0.00774314 0)
(-0.0130316 0.00749254 0)
(-0.0148836 0.00711107 0)
(-0.0167581 0.00655282 0)
(-0.0186483 0.00574108 0)
(-0.0205383 0.0045712 0)
(-0.022385 0.00291082 0)
(-0.0240732 0.000601967 0)
(-0.0253883 -0.00251638 0)
(-0.0258547 -0.0066934 0)
(-0.0246053 -0.0120872 0)
(-0.0203913 -0.0184537 0)
(-0.01263 -0.0234693 0)
(-0.00299557 -0.0205991 0)
(-0.000613478 0.00633654 0)
(-0.00256751 0.00826826 0)
(-0.00434167 0.00895481 0)
(-0.00601725 0.0093689 0)
(-0.00773914 0.00958956 0)
(-0.00949787 0.00964332 0)
(-0.0113063 0.00956285 0)
(-0.0131824 0.00936667 0)
(-0.0151455 0.00904543 0)
(-0.0172213 0.00855635 0)
(-0.0194424 0.00782009 0)
(-0.0218405 0.00671652 0)
(-0.0244205 0.00506816 0)
(-0.0271145 0.00262118 0)
(-0.0297276 -0.00101209 0)
(-0.0316546 -0.00637525 0)
(-0.0315091 -0.0143091 0)
(-0.0270039 -0.0249222 0)
(-0.0172293 -0.0335374 0)
(-0.0039676 -0.0289931 0)
(-0.00057599 0.0078755 0)
(-0.00251121 0.010099 0)
(-0.00430492 0.0107362 0)
(-0.00600656 0.0111117 0)
(-0.00774981 0.0113368 0)
(-0.00952591 0.0114325 0)
(-0.0113581 0.0114227 0)
(-0.0132845 0.0113257 0)
(-0.0153521 0.0111399 0)
(-0.0176225 0.0108337 0)
(-0.0201776 0.0103361 0)
(-0.0231139 0.00952143 0)
(-0.0265218 0.00817309 0)
(-0.0304403 0.005929 0)
(-0.0347436 0.00216642 0)
(-0.0389267 -0.00423897 0)
(-0.0411657 -0.0152669 0)
(-0.0375359 -0.0324354 0)
(-0.0260035 -0.0464907 0)
(-0.00677608 -0.0404988 0)
(-0.000540885 0.00936879 0)
(-0.00244765 0.0119158 0)
(-0.00424514 0.0125323 0)
(-0.00596225 0.0128775 0)
(-0.00771922 0.0131032 0)
(-0.00950278 0.0132391 0)
(-0.0113411 0.0133123 0)
(-0.0132878 0.0133501 0)
(-0.0154148 0.0133673 0)
(-0.0178189 0.0133552 0)
(-0.0206334 0.0132678 0)
(-0.0240277 0.0129939 0)
(-0.0281948 0.0123068 0)
(-0.0333427 0.0107932 0)
(-0.0397099 0.00768047 0)
(-0.0472551 0.0011208 0)
(-0.05422 -0.013103 0)
(-0.054559 -0.040668 0)
(-0.038999 -0.0626683 0)
(-0.0141929 -0.0590939 0)
(-0.000517575 0.0108244 0)
(-0.0024 0.0137127 0)
(-0.00419686 0.0143329 0)
(-0.00591581 0.0146531 0)
(-0.00766749 0.0148726 0)
(-0.00943078 0.0150396 0)
(-0.0112339 0.0151956 0)
(-0.0131399 0.0153856 0)
(-0.0152371 0.0156505 0)
(-0.0176477 0.0160168 0)
(-0.0205432 0.0164818 0)
(-0.0241515 0.0169808 0)
(-0.0287593 0.017338 0)
(-0.0347464 0.0172202 0)
(-0.0429095 0.0159412 0)
(-0.0546366 0.0108219 0)
(-0.0678114 -0.00705558 0)
(-0.0671859 -0.0485345 0)
(-0.0475829 -0.0850971 0)
(-0.0252208 -0.0917053 0)
(-0.000508052 0.012259 0)
(-0.00238707 0.0154999 0)
(-0.00418637 0.0161314 0)
(-0.00589433 0.0164202 0)
(-0.00761543 0.0166159 0)
(-0.00931799 0.0167914 0)
(-0.0110261 0.0170099 0)
(-0.0128038 0.0173407 0)
(-0.014743 0.0178561 0)
(-0.0169698 0.0186247 0)
(-0.0196603 0.0196993 0)
(-0.0230523 0.0210927 0)
(-0.0274391 0.0227626 0)
(-0.0332189 0.0246108 0)
(-0.0416835 0.026113 0)
(-0.0555865 0.0230608 0)
(-0.0694945 -0.000489003 0)
(-0.0629332 -0.0616836 0)
(-0.0453255 -0.11667 0)
(-0.024419 -0.134643 0)
(-0.000518364 0.0136994 0)
(-0.0024287 0.0172954 0)
(-0.00424127 0.0179264 0)
(-0.00592767 0.0181595 0)
(-0.00758973 0.0182964 0)
(-0.0091834 0.0184384 0)
(-0.0107256 0.0186736 0)
(-0.0122739 0.0190967 0)
(-0.0139082 0.0198085 0)
(-0.0157319 0.0209139 0)
(-0.0178777 0.0225129 0)
(-0.0205102 0.0246953 0)
(-0.0238022 0.0275812 0)
(-0.0279771 0.0313455 0)
(-0.0339863 0.0353005 0)
(-0.0444661 0.0326956 0)
(-0.0546894 0.00304487 0)
(-0.0431643 -0.0703057 0)
(-0.0396006 -0.13713 0)
(-0.00759701 -0.174323 0)
(-0.000557831 0.0152002 0)
(-0.00254992 0.0191311 0)
(-0.00439644 0.0197226 0)
(-0.00605157 0.019852 0)
(-0.00762292 0.0198734 0)
(-0.00905482 0.0199182 0)
(-0.0103579 0.0200988 0)
(-0.0115792 0.0205291 0)
(-0.0127758 0.0213267 0)
(-0.014007 0.0226116 0)
(-0.015327 0.0244978 0)
(-0.0167683 0.0271055 0)
(-0.0182979 0.0306514 0)
(-0.0199386 0.0356025 0)
(-0.0211429 0.0401209 0)
(-0.0239588 0.0364007 0)
(-0.0296529 0.00494917 0)
(-0.0134553 -0.0710084 0)
(-0.0308125 -0.142537 0)
(-0.00162077 -0.196842 0)
(-0.000649587 0.0168043 0)
(-0.00279391 0.0210453 0)
(-0.00469713 0.0215266 0)
(-0.00630319 0.021475 0)
(-0.00774223 0.0213009 0)
(-0.00895234 0.021166 0)
(-0.00994446 0.0212025 0)
(-0.0107582 0.0215323 0)
(-0.0114257 0.0222708 0)
(-0.0119592 0.0235253 0)
(-0.012334 0.0253822 0)
(-0.0124568 0.0279211 0)
(-0.012107 0.0312988 0)
(-0.0107752 0.0358257 0)
(-0.00844241 0.0396211 0)
(-0.00144883 0.0349952 0)
(-0.00499904 0.00270845 0)
(0.014312 -0.0654815 0)
(-0.0174845 -0.133107 0)
(0.00487836 -0.206426 0)
(-0.000815084 0.0186569 0)
(-0.00321088 0.0231001 0)
(-0.00518604 0.0233383 0)
(-0.0066982 0.0229904 0)
(-0.00793668 0.0225185 0)
(-0.00884555 0.0221119 0)
(-0.00945076 0.0219113 0)
(-0.00979589 0.0220341 0)
(-0.00989203 0.022573 0)
(-0.0097184 0.0236006 0)
(-0.00920448 0.0251444 0)
(-0.00819706 0.0271809 0)
(-0.00640337 0.029667 0)
(-0.00315471 0.0324549 0)
(0.00133453 0.0345268 0)
(0.0123407 0.0290628 0)
(0.0113317 -0.00246658 0)
(0.0256341 -0.0583546 0)
(-0.0107918 -0.118494 0)
(0.0128208 -0.207316 0)
(-0.00105297 0.0209155 0)
(-0.00383679 0.0253553 0)
(-0.00587194 0.0251222 0)
(-0.00717716 0.0243143 0)
(-0.00808157 0.0234282 0)
(-0.00856094 0.0226629 0)
(-0.00869164 0.0221618 0)
(-0.00852136 0.0220011 0)
(-0.00802851 0.0222336 0)
(-0.0071899 0.022903 0)
(-0.00592974 0.0239726 0)
(-0.00411185 0.0253085 0)
(-0.0015478 0.0266694 0)
(0.00234628 0.0276123 0)
(0.00712572 0.0268738 0)
(0.0175058 0.0206158 0)
(0.0177571 -0.00447585 0)
(0.0272575 -0.0512804 0)
(-0.00733838 -0.11182 0)
(0.0167168 -0.20653 0)
(-0.0017908 0.0235093 0)
(-0.00487848 0.0277258 0)
(-0.00668943 0.0267266 0)
(-0.0074675 0.0252733 0)
(-0.00776048 0.0238638 0)
(-0.00768539 0.0227122 0)
(-0.00723132 0.021875 0)
(-0.00644963 0.0213867 0)
(-0.00532072 0.0212676 0)
(-0.00382231 0.0215291 0)
(-0.00190654 0.0221035 0)
(0.000488936 0.0227896 0)
(0.0034365 0.0232453 0)
(0.00715711 0.0229184 0)
(0.0110234 0.0204239 0)
(0.0181829 0.0135262 0)
(0.0179585 -0.00625082 0)
(0.0250276 -0.0452306 0)
(-0.00516464 -0.106421 0)
(0.023029 -0.208468 0)
(-0.00213828 0.0280718 0)
(-0.00606049 0.0302153 0)
(-0.00699068 0.0278308 0)
(-0.00690259 0.0254641 0)
(-0.00637946 0.0235742 0)
(-0.00537887 0.0220636 0)
(-0.00403014 0.020893 0)
(-0.00237408 0.0200752 0)
(-0.000424261 0.0196121 0)
(0.00186795 0.0194852 0)
(0.00454533 0.0196236 0)
(0.00763195 0.0198262 0)
(0.0110378 0.0197835 0)
(0.0147242 0.0189002 0)
(0.0179546 0.016102 0)
(0.0225229 0.00930628 0)
(0.0208442 -0.00663874 0)
(0.0270619 -0.0404857 0)
(-0.00114451 -0.103927 0)
(0.0318816 -0.205212 0)
(-0.00499245 0.0321471 0)
(-0.00814878 0.0318925 0)
(-0.0058169 0.0276708 0)
(-0.00407691 0.0246196 0)
(-0.00176658 0.0221798 0)
(0.000885001 0.0202588 0)
(0.00378919 0.0187431 0)
(0.00688314 0.0176213 0)
(0.0102145 0.0168216 0)
(0.0138035 0.0163242 0)
(0.0176796 0.0160806 0)
(0.0218788 0.0159433 0)
(0.0261841 0.0157334 0)
(0.0306618 0.014926 0)
(0.0340875 0.0128971 0)
(0.0376336 0.00758742 0)
(0.0355783 -0.0044506 0)
(0.0405124 -0.0345981 0)
(0.0116288 -0.100368 0)
(0.0437208 -0.196196 0)
(-0.0070623 0.0421829 0)
(-0.00666016 0.0250541 0)
(0.00161068 0.0209545 0)
(0.00787238 0.0187297 0)
(0.014233 0.0166732 0)
(0.0201978 0.014922 0)
(0.0261271 0.0135344 0)
(0.0317595 0.0124698 0)
(0.0374426 0.0117116 0)
(0.0430835 0.0111332 0)
(0.0487209 0.0108238 0)
(0.0546453 0.0106156 0)
(0.0601701 0.0105452 0)
(0.0662354 0.0102159 0)
(0.0704786 0.00926974 0)
(0.0753663 0.00472229 0)
(0.0725238 -0.00505026 0)
(0.0752272 -0.0311798 0)
(0.044936 -0.0865788 0)
(0.0690182 -0.155365 0)
(0.0469629 0.0424575 0)
(0.0536806 0.0313086 0)
(0.0772944 0.0232789 0)
(0.0974842 0.0186214 0)
(0.113918 0.015511 0)
(0.126409 0.0135094 0)
(0.138531 0.011485 0)
(0.148825 0.0103579 0)
(0.158413 0.00894968 0)
(0.167802 0.00826542 0)
(0.175284 0.00739933 0)
(0.184463 0.00687623 0)
(0.190143 0.00666306 0)
(0.198989 0.00590665 0)
(0.202946 0.00631595 0)
(0.210356 0.00432997 0)
(0.209753 0.00183301 0)
(0.201486 -0.00526638 0)
(0.166419 -0.0141784 0)
(0.132738 -0.0387475 0)
)
;

boundaryField
{
    movingWall
    {
        type            fixedValue;
        value           uniform (1 0 0);
    }
    fixedWalls
    {
        type            noSlip;
    }
    frontAndBack
    {
        type            empty;
    }
}


// ************************************************************************* //
