/*--------------------------------*- C++ -*----------------------------------*\
| =========                 |                                                 |
| \\      /  F ield         | OpenFOAM: The Open Source CFD Toolbox           |
|  \\    /   O peration     | Version:  5.0                                   |
|   \\  /    A nd           | Web:      www.OpenFOAM.org                      |
|    \\/     M anipulation  |                                                 |
\*---------------------------------------------------------------------------*/
FoamFile
{
    version     2.0;
    format      ascii;
    class       volScalarField;
    location    "1";
    object      epsilon;
}
// * * * * * * * * * * * * * * * * * * * * * * * * * * * * * * * * * * * * * //

dimensions      [0 2 -3 0 0 0 0];

internalField   nonuniform List<scalar> 
400
(
0.000654093
0.000851688
0.00100909
0.001105
0.00115942
0.00119031
0.0012094
0.00122342
0.00123576
0.00124776
0.00125944
0.00127004
0.00127761
0.00127982
0.0012671
0.00123017
0.00115764
0.0010346
0.000847679
0.000655953
0.000852981
0.000687878
0.000739904
0.000787998
0.00081751
0.000833603
0.000842106
0.000846869
0.000849941
0.000852187
0.000853608
0.000854075
0.000853613
0.000850433
0.000840623
0.000820791
0.000787361
0.000738707
0.000695916
0.00085215
0.00103813
0.000735597
0.000741176
0.000768609
0.000789547
0.000802117
0.000808854
0.000812358
0.000814344
0.000815728
0.000816781
0.000817276
0.000817131
0.000814888
0.000808538
0.000796089
0.000775976
0.000755785
0.000758202
0.00100173
0.0011662
0.000788381
0.000768111
0.000784399
0.000800897
0.000811937
0.000818272
0.000821739
0.000823834
0.000825473
0.000827035
0.00082849
0.000829356
0.00082894
0.000825916
0.000819107
0.000807914
0.000798266
0.000814842
0.00107342
0.0012509
0.000828222
0.000795646
0.000805172
0.000818681
0.000828719
0.000835008
0.00083884
0.000841531
0.000843997
0.000846707
0.000849815
0.000853049
0.000855797
0.00085734
0.000856616
0.000851996
0.000845669
0.000856983
0.0010898
0.00130673
0.000856439
0.000817211
0.000823376
0.000835419
0.000845089
0.000851634
0.000856106
0.000859765
0.000863601
0.000868276
0.00087421
0.000881533
0.000890259
0.000900109
0.000909729
0.000914541
0.00091031
0.000901366
0.00107315
0.00134444
0.000876441
0.000833695
0.000838358
0.000849822
0.000859479
0.00086644
0.00087173
0.000876691
0.000882516
0.000890227
0.000900792
0.00091516
0.000934387
0.000959421
0.000990132
0.00101478
0.00101815
0.000978041
0.00105369
0.00137168
0.000891336
0.000846653
0.000850714
0.000862012
0.000871784
0.000879187
0.000885374
0.000891908
0.000900347
0.000912317
0.000929734
0.000954949
0.000991034
0.00104155
0.00110934
0.0011902
0.00123491
0.00119413
0.00115567
0.00139372
0.00090353
0.000857538
0.000861271
0.00087244
0.000882215
0.000889908
0.000896904
0.0009051
0.000916582
0.000933809
0.000960022
0.000999562
0.00105861
0.00114627
0.00127907
0.00148794
0.00173323
0.00182635
0.00171126
0.00141416
0.00091476
0.000867474
0.000870714
0.000881461
0.000890881
0.000898502
0.000905995
0.000915641
0.000930106
0.000952739
0.000988112
0.00104258
0.00112621
0.00125925
0.00149696
0.00198122
0.00273286
0.0030518
0.00288965
0.00143553
0.000926227
0.000877209
0.00087944
0.000889204
0.000897729
0.00090479
0.000912321
0.000922909
0.000939633
0.000966412
0.00100848
0.00107342
0.00117599
0.001358
0.00175511
0.0026526
0.0038594
0.00432636
0.00409597
0.00145967
0.000938713
0.0008871
0.000887575
0.00089569
0.000902886
0.000909165
0.000916566
0.00092774
0.000945756
0.000974388
0.00101832
0.00108497
0.00119328
0.00141185
0.00193923
0.00308943
0.00457502
0.00521052
0.00484018
0.00148842
0.000952689
0.00089712
0.000895214
0.000901487
0.000907921
0.000914642
0.000923325
0.000936307
0.00095609
0.000985414
0.00102716
0.00108665
0.00118334
0.00139826
0.00195836
0.00318859
0.00501688
0.00612106
0.00541027
0.00152259
0.000967952
0.000907359
0.000903388
0.000910037
0.000918986
0.00092967
0.000943692
0.00096279
0.00098841
0.00102148
0.00106206
0.00111218
0.00118958
0.00137099
0.00189187
0.00315271
0.0052726
0.00716407
0.00590577
0.00156485
0.000984543
0.000919726
0.000918259
0.000931957
0.000951825
0.000976842
0.00100782
0.00104547
0.00108965
0.00113853
0.00118838
0.00123583
0.00129283
0.00143305
0.00187694
0.00308444
0.00538317
0.00806853
0.00622879
0.00161009
0.00100363
0.000944491
0.000959362
0.000999204
0.00105301
0.00111873
0.00119585
0.00128342
0.00137904
0.0014772
0.00156835
0.00164139
0.00169839
0.00180212
0.00215641
0.00321127
0.00556281
0.00848047
0.00647486
0.00166457
0.00104311
0.00101725
0.00109371
0.00121287
0.00136073
0.00153342
0.00172778
0.00193918
0.00216159
0.00238361
0.00258835
0.00275232
0.00286312
0.00295169
0.00321205
0.00403732
0.00621066
0.00856079
0.00667149
0.00175321
0.00115797
0.00128472
0.00156649
0.00191727
0.00231694
0.00275583
0.00322277
0.00370455
0.00418892
0.00465498
0.00508449
0.00543711
0.00569899
0.00579945
0.00593893
0.00641272
0.00792263
0.00849234
0.00674366
0.00173611
0.00148987
0.00223713
0.00318568
0.00414737
0.00511772
0.00608534
0.00703118
0.00792902
0.00877128
0.00953068
0.0102218
0.0107605
0.0112103
0.0113362
0.0112785
0.0108263
0.0103646
0.00891494
0.00674528
0.00149258
0.00180542
0.00239624
0.00296358
0.00350126
0.00401073
0.0044947
0.00495631
0.00540114
0.00582747
0.0062469
0.00663566
0.00703024
0.00735837
0.00765081
0.00780311
0.00779973
0.00773956
0.00748836
0.00657831
)
;

boundaryField
{
    movingWall
    {
        Cmu             0.09;
        kappa           0.41;
        E               9.8;
        type            epsilonWallFunction;
        value           nonuniform List<scalar> 
20
(
0.00149258
0.00180542
0.00239624
0.00296358
0.00350126
0.00401073
0.0044947
0.00495631
0.00540114
0.00582747
0.0062469
0.00663566
0.00703024
0.00735837
0.00765081
0.00780311
0.00779973
0.00773956
0.00748836
0.00657831
)
;
    }
    fixedWalls
    {
        Cmu             0.09;
        kappa           0.41;
        E               9.8;
        type            epsilonWallFunction;
        value           nonuniform List<scalar> 
60
(
0.000654093
0.000852981
0.00103813
0.0011662
0.0012509
0.00130673
0.00134444
0.00137168
0.00139372
0.00141416
0.00143553
0.00145967
0.00148842
0.00152259
0.00156485
0.00161009
0.00166457
0.00175321
0.00173611
0.00149258
0.000655953
0.00085215
0.00100173
0.00107342
0.0010898
0.00107315
0.00105369
0.00115567
0.00171126
0.00288965
0.00409597
0.00484018
0.00541027
0.00590577
0.00622879
0.00647486
0.00667149
0.00674366
0.00674528
0.00657831
0.000654093
0.000851688
0.00100909
0.001105
0.00115942
0.00119031
0.0012094
0.00122342
0.00123576
0.00124776
0.00125944
0.00127004
0.00127761
0.00127982
0.0012671
0.00123017
0.00115764
0.0010346
0.000847679
0.000655953
)
;
    }
    frontAndBack
    {
        type            empty;
    }
}


// ************************************************************************* //
