/*--------------------------------*- C++ -*----------------------------------*\
| =========                 |                                                 |
| \\      /  F ield         | OpenFOAM: The Open Source CFD Toolbox           |
|  \\    /   O peration     | Version:  5.0                                   |
|   \\  /    A nd           | Web:      www.OpenFOAM.org                      |
|    \\/     M anipulation  |                                                 |
\*---------------------------------------------------------------------------*/
FoamFile
{
    version     2.0;
    format      ascii;
    class       volScalarField;
    location    "1";
    object      k;
}
// * * * * * * * * * * * * * * * * * * * * * * * * * * * * * * * * * * * * * //

dimensions      [0 2 -2 0 0 0 0];

internalField   nonuniform List<scalar> 
400
(
0.000201599
0.000263069
0.000312049
0.000341912
0.000358875
0.000368523
0.000374497
0.000378893
0.000382772
0.000386544
0.000390215
0.00039354
0.000395902
0.000396599
0.000392626
0.000381092
0.00035845
0.000320073
0.000261811
0.000202194
0.000263483
0.00046176
0.000561734
0.000618507
0.000651888
0.000672067
0.000685224
0.000695119
0.00070386
0.000712378
0.000720687
0.000727677
0.00073099
0.000729922
0.000720161
0.000696971
0.000653338
0.000578896
0.000453872
0.000263229
0.000321171
0.000583098
0.000711898
0.000785448
0.000829017
0.000855038
0.000871135
0.000882086
0.000890661
0.000898125
0.000904558
0.000908432
0.000908974
0.000902895
0.000885953
0.000852532
0.000794748
0.000700434
0.000544051
0.000309727
0.000361123
0.000659189
0.000806194
0.000890988
0.000941804
0.000972231
0.000990655
0.00100247
0.00101091
0.00101749
0.00102207
0.0010238
0.001021
0.00100997
0.000986207
0.000943602
0.00087371
0.00076341
0.000582442
0.000331849
0.000387588
0.000709174
0.000869092
0.000962263
0.0010186
0.00105247
0.00107278
0.00108536
0.00109376
0.00109968
0.0011027
0.00110278
0.0010969
0.00108146
0.0010515
0.00100036
0.000918796
0.00079122
0.000589004
0.000336758
0.000405063
0.000742727
0.000912143
0.00101164
0.00107218
0.00110868
0.00113047
0.00114372
0.00115224
0.0011577
0.00116004
0.00115886
0.00115079
0.00113189
0.00109662
0.00103739
0.000943443
0.000796938
0.000570287
0.000331364
0.000416887
0.000765896
0.000942285
0.00104649
0.00111013
0.00114855
0.00117142
0.00118523
0.00119401
0.00119948
0.00120175
0.00120015
0.00119096
0.00116964
0.00112969
0.00106205
0.000953008
0.000786228
0.000535237
0.000326061
0.000425432
0.000782769
0.00096422
0.00107178
0.00113753
0.00117716
0.0012007
0.00121491
0.00122403
0.00122995
0.00123261
0.00123131
0.00122167
0.00119815
0.00115256
0.00107414
0.000953603
0.000782121
0.000541379
0.000362466
0.000432341
0.000796169
0.000981225
0.00109096
0.00115787
0.00119799
0.00122169
0.00123602
0.0012454
0.00125187
0.00125498
0.00125394
0.00124318
0.00121556
0.0011613
0.0010734
0.000962099
0.000860827
0.000734117
0.000547336
0.000438737
0.000808043
0.000995557
0.00110638
0.00117347
0.00121328
0.00123654
0.00125055
0.00125986
0.0012664
0.00126942
0.00126724
0.00125256
0.00121631
0.00115013
0.00107367
0.00106663
0.00117125
0.00120919
0.000923982
0.000445406
0.000819721
0.00100869
0.0011195
0.00118575
0.00122443
0.00124662
0.00125984
0.0012686
0.0012743
0.00127616
0.00127039
0.0012484
0.00120038
0.00113766
0.00113064
0.00131549
0.00162648
0.0016982
0.00129596
0.000452922
0.000832077
0.00102148
0.00113111
0.00119556
0.00123245
0.00125326
0.00126556
0.00127369
0.00127808
0.00127824
0.00126779
0.00123671
0.00117892
0.00114382
0.00121551
0.00158324
0.00197602
0.00205831
0.00152268
0.000461867
0.000845546
0.00103424
0.00114158
0.00120365
0.00123889
0.00125904
0.00127167
0.00128055
0.00128527
0.00128462
0.00127104
0.00123499
0.00117782
0.00115859
0.00129346
0.00175124
0.00225999
0.00241639
0.00170038
0.000472481
0.0008601
0.00104688
0.0011514
0.00121194
0.00124773
0.00127028
0.00128633
0.00129933
0.00130835
0.00131056
0.00129833
0.00126249
0.00121067
0.0012014
0.00136219
0.00184811
0.00248855
0.00278881
0.00185293
0.000485608
0.000875812
0.00105962
0.00116295
0.00122633
0.00126802
0.00129904
0.00132574
0.00135084
0.00137341
0.00138763
0.00138737
0.00136255
0.00132144
0.00131748
0.00147376
0.00193823
0.00262629
0.00308988
0.00195172
0.000499658
0.000891939
0.00107546
0.00118555
0.00126105
0.00132012
0.00137286
0.00142462
0.00147715
0.00152891
0.0015739
0.0016028
0.00160546
0.00158434
0.00158216
0.00169678
0.00206937
0.00274156
0.00322844
0.0020275
0.000516581
0.000914931
0.00110974
0.00124358
0.00135303
0.00145334
0.00155311
0.0016557
0.00176099
0.001867
0.00196816
0.00205163
0.00210304
0.002114
0.00210685
0.00215371
0.00237551
0.00292182
0.00325242
0.00208651
0.000544278
0.000963048
0.00120648
0.00141199
0.00160219
0.00178716
0.00197471
0.00216439
0.00235217
0.00253398
0.00270148
0.00284696
0.00295364
0.00300895
0.00300004
0.00297891
0.00303099
0.00327606
0.00316953
0.00210756
0.000538969
0.000999609
0.00144828
0.00183314
0.00217333
0.00248312
0.00276677
0.00302658
0.00326357
0.00347991
0.00367211
0.00384211
0.00397394
0.00407358
0.00408011
0.00404798
0.003899
0.00368489
0.0031312
0.00210714
0.000463066
0.000560544
0.000744817
0.000921799
0.00108955
0.00124852
0.00139961
0.00154379
0.00168275
0.00181592
0.00194693
0.00206818
0.00219099
0.00229324
0.00238379
0.00243113
0.00243021
0.00241191
0.00233468
0.00205339
)
;

boundaryField
{
    movingWall
    {
        type            kqRWallFunction;
        value           nonuniform List<scalar> 
20
(
0.000463066
0.000560544
0.000744817
0.000921799
0.00108955
0.00124852
0.00139961
0.00154379
0.00168275
0.00181592
0.00194693
0.00206818
0.00219099
0.00229324
0.00238379
0.00243113
0.00243021
0.00241191
0.00233468
0.00205339
)
;
    }
    fixedWalls
    {
        type            kqRWallFunction;
        value           nonuniform List<scalar> 
60
(
0.000201599
0.000263483
0.000321171
0.000361123
0.000387588
0.000405063
0.000416887
0.000425432
0.000432341
0.000438737
0.000445406
0.000452922
0.000461867
0.000472481
0.000485608
0.000499658
0.000516581
0.000544278
0.000538969
0.000463066
0.000202194
0.000263229
0.000309727
0.000331849
0.000336758
0.000331364
0.000326061
0.000362466
0.000547336
0.000923982
0.00129596
0.00152268
0.00170038
0.00185293
0.00195172
0.0020275
0.00208651
0.00210756
0.00210714
0.00205339
0.000201599
0.000263069
0.000312049
0.000341912
0.000358875
0.000368523
0.000374497
0.000378893
0.000382772
0.000386544
0.000390215
0.00039354
0.000395902
0.000396599
0.000392626
0.000381092
0.00035845
0.000320073
0.000261811
0.000202194
)
;
    }
    frontAndBack
    {
        type            empty;
    }
}


// ************************************************************************* //
