/*--------------------------------*- C++ -*----------------------------------*\
| =========                 |                                                 |
| \\      /  F ield         | OpenFOAM: The Open Source CFD Toolbox           |
|  \\    /   O peration     | Version:  5.0                                   |
|   \\  /    A nd           | Web:      www.OpenFOAM.org                      |
|    \\/     M anipulation  |                                                 |
\*---------------------------------------------------------------------------*/
FoamFile
{
    version     2.0;
    format      ascii;
    class       volScalarField;
    location    "1";
    object      nut;
}
// * * * * * * * * * * * * * * * * * * * * * * * * * * * * * * * * * * * * * //

dimensions      [0 2 -1 0 0 0 0];

internalField   nonuniform List<scalar> 
400
(
5.59218e-06
7.3131e-06
8.68474e-06
9.52156e-06
9.99744e-06
1.02686e-05
1.04368e-05
1.05609e-05
1.06706e-05
1.07773e-05
1.08811e-05
1.09749e-05
1.10413e-05
1.10611e-05
1.09494e-05
1.06251e-05
9.98908e-06
8.91185e-06
7.27758e-06
5.60925e-06
7.32501e-06
2.78974e-05
3.83821e-05
4.36924e-05
4.67839e-05
4.8765e-05
5.01812e-05
5.13505e-05
5.24597e-05
5.35956e-05
5.47617e-05
5.57986e-05
5.63383e-05
5.6384e-05
5.55266e-05
5.32646e-05
4.87916e-05
4.08293e-05
2.66411e-05
7.31801e-06
8.94256e-06
4.15993e-05
6.15398e-05
7.2239e-05
7.83414e-05
8.20306e-05
8.44391e-05
8.62019e-05
8.76718e-05
8.89961e-05
9.01592e-05
9.0878e-05
9.10026e-05
9.00365e-05
8.73702e-05
8.21679e-05
7.32577e-05
5.84223e-05
3.51348e-05
8.61881e-06
1.00642e-05
4.96051e-05
7.61548e-05
9.10854e-05
9.96751e-05
0.000104775
0.000107942
0.000110067
0.000111643
0.000112875
0.000113679
0.000113863
0.000113125
0.000110749
0.000105985
9.78317e-05
8.50377e-05
6.57068e-05
3.74691e-05
9.23325e-06
1.08084e-05
5.46515e-05
8.54386e-05
0.0001035
0.00011406
0.000120296
0.000124042
0.000126389
0.000127944
0.000128954
0.000129248
0.000128795
0.000126942
0.000122997
0.000116067
0.000105141
8.9175e-05
6.66249e-05
3.6434e-05
9.36552e-06
1.13006e-05
5.79702e-05
9.16293e-05
0.000111866
0.000123843
0.000130904
0.000135053
0.000137515
0.000138978
0.000139675
0.000139485
0.000138256
0.000135205
0.000129519
0.000120242
0.000106467
8.75932e-05
6.27916e-05
3.24734e-05
9.20854e-06
1.16342e-05
6.02364e-05
9.58518e-05
0.000117566
0.000130516
0.000138135
0.000142537
0.000145032
0.000146356
0.000146726
0.000146006
0.000143909
0.00013949
0.000131771
0.000119716
0.000102526
8.05496e-05
5.4642e-05
2.63619e-05
9.08084e-06
1.18755e-05
6.18683e-05
9.88301e-05
0.000121526
0.0001351
0.000143056
0.00014758
0.000150039
0.000151185
0.00015122
0.000149881
0.000146764
0.00014066
0.000130369
0.000114786
9.36044e-05
6.87634e-05
4.45813e-05
2.209e-05
1.02316e-05
1.20704e-05
6.31408e-05
0.000101048
0.000124371
0.000138301
0.000146411
0.000150945
0.000153302
0.000154228
0.000153881
0.000151794
0.000147405
0.000139156
0.000125621
0.000105887
8.10714e-05
5.59881e-05
3.84784e-05
2.65576e-05
1.57556e-05
1.22504e-05
6.42397e-05
0.00010283
0.000126524
0.000140599
0.000148712
0.000153158
0.000155354
0.000156014
0.000155187
0.000152222
0.00014627
0.000135435
0.000118226
9.45429e-05
6.9306e-05
5.16813e-05
4.5178e-05
4.31196e-05
2.65903e-05
1.24377e-05
6.52917e-05
0.00010439
0.000128257
0.000142308
0.000150302
0.000154584
0.000156576
0.00015694
0.000155534
0.000151667
0.00014403
0.000130673
0.000110274
8.5777e-05
6.55522e-05
5.87148e-05
6.1691e-05
5.99929e-05
3.69034e-05
1.26484e-05
6.63799e-05
0.00010586
0.000129732
0.000143623
0.000151407
0.000155482
0.00015727
0.000157378
0.000155446
0.000150917
0.000142053
0.00012687
0.000104826
8.34008e-05
6.85695e-05
7.30223e-05
7.68123e-05
7.31783e-05
4.31123e-05
1.28989e-05
6.75407e-05
0.000107309
0.000131016
0.000144639
0.000152146
0.000155981
0.000157628
0.000157622
0.0001555
0.000150721
0.000141555
0.000126323
0.000105509
8.63996e-05
7.68875e-05
8.6564e-05
9.1627e-05
8.58521e-05
4.80967e-05
1.31956e-05
6.87838e-05
0.000108707
0.000132075
0.000145259
0.000152467
0.000156211
0.000157803
0.000157814
0.000155868
0.000151331
0.000142845
0.000128981
0.000110891
9.47513e-05
8.82727e-05
9.75023e-05
0.000105709
9.77056e-05
5.2322e-05
1.35626e-05
7.01181e-05
0.00010987
0.000132557
0.000145231
0.000152032
0.000155476
0.000156955
0.000157086
0.000155796
0.000152211
0.000145772
0.000135203
0.000121563
0.000109011
0.000104146
0.000109617
0.000115316
0.000106496
5.50393e-05
1.39552e-05
7.13408e-05
0.000110213
0.000131856
0.000143237
0.000148948
0.000151624
0.000152743
0.00015301
0.000152556
0.000150925
0.000147421
0.000141328
0.000133016
0.000125014
0.00012016
0.000120017
0.000121603
0.000110614
5.71392e-05
1.44283e-05
7.22253e-05
0.000108957
0.000127259
0.000135844
0.000139703
0.000141574
0.000142796
0.000143925
0.000145131
0.000146261
0.000146358
0.000144623
0.000140479
0.000135344
0.000129967
0.000125795
0.000123712
0.00011121
5.87302e-05
1.52072e-05
7.20845e-05
0.000101971
0.000114546
0.0001205
0.000124067
0.000127349
0.000130823
0.000134414
0.000137958
0.000141101
0.000143469
0.000144407
0.00014298
0.000139672
0.000134477
0.000128934
0.000121921
0.000106464
5.92797e-05
1.50589e-05
6.03608e-05
8.43832e-05
9.49365e-05
0.000102499
0.000108433
0.000113215
0.000117252
0.000120896
0.000124256
0.000127335
0.000129973
0.000132085
0.000133223
0.000132165
0.000130757
0.000126377
0.000117907
9.89798e-05
5.92421e-05
1.29298e-05
1.56633e-05
2.08359e-05
2.58047e-05
3.05148e-05
3.49793e-05
3.92244e-05
4.32771e-05
4.71842e-05
5.09276e-05
5.46105e-05
5.80141e-05
6.14546e-05
6.43219e-05
6.68453e-05
6.81698e-05
6.81474e-05
6.76471e-05
6.55103e-05
5.7686e-05
)
;

boundaryField
{
    movingWall
    {
        type            nutkWallFunction;
        Cmu             0.09;
        kappa           0.41;
        E               9.8;
        value           uniform 0;
    }
    fixedWalls
    {
        type            nutkWallFunction;
        Cmu             0.09;
        kappa           0.41;
        E               9.8;
        value           uniform 0;
    }
    frontAndBack
    {
        type            empty;
    }
}


// ************************************************************************* //
