/*--------------------------------*- C++ -*----------------------------------*\
| =========                 |                                                 |
| \\      /  F ield         | OpenFOAM: The Open Source CFD Toolbox           |
|  \\    /   O peration     | Version:  5.0                                   |
|   \\  /    A nd           | Web:      www.OpenFOAM.org                      |
|    \\/     M anipulation  |                                                 |
\*---------------------------------------------------------------------------*/
FoamFile
{
    version     2.0;
    format      ascii;
    class       volScalarField;
    location    "1";
    object      p;
}
// * * * * * * * * * * * * * * * * * * * * * * * * * * * * * * * * * * * * * //

dimensions      [0 2 -2 0 0 0 0];

internalField   nonuniform List<scalar> 
400
(
1.60183e-08
-7.69288e-06
-6.54785e-06
4.01188e-06
2.61289e-05
6.10796e-05
0.000109932
0.000173743
0.000253569
0.000350273
0.00046396
0.000594914
0.000741452
0.000898389
0.00105899
0.00121246
0.00134509
0.0014431
0.00149861
0.0015104
7.39394e-06
-1.02435e-06
1.43128e-06
1.40903e-05
3.71655e-05
7.16237e-05
0.000118698
0.000179631
0.00025562
0.000347676
0.000456456
0.000582276
0.000723215
0.000876136
0.00103488
0.00119006
0.00132914
0.00143737
0.00150145
0.00151647
4.33189e-06
-8.10578e-06
-7.58092e-06
5.17409e-06
2.82151e-05
6.16226e-05
0.000106563
0.000164447
0.000236738
0.000324846
0.000429991
0.000552931
0.000692953
0.000848205
0.00101389
0.00118189
0.00133934
0.00146719
0.00154407
0.0015607
-1.13284e-05
-2.98009e-05
-3.43963e-05
-2.45516e-05
-3.56097e-06
2.75362e-05
6.95437e-05
0.000123931
0.000192482
0.000277185
0.000380096
0.000502973
0.000646608
0.000811279
0.000993583
0.00118649
0.00137531
0.00153362
0.00162944
0.00164694
-4.24169e-05
-6.6712e-05
-7.74858e-05
-7.26464e-05
-5.57904e-05
-2.87358e-05
8.92077e-06
5.86305e-05
0.00012248
0.000203101
0.000303545
0.000427056
0.000576789
0.000754146
0.000959996
0.00118904
0.00142475
0.0016312
0.00176006
0.00178107
-8.93271e-05
-0.000118769
-0.000135736
-0.000136993
-0.000125932
-0.000104787
-7.34597e-05
-3.05447e-05
2.62974e-05
0.000100297
0.000195537
0.000316954
0.000470149
0.000660386
0.000893016
0.00116794
0.00146971
0.00175104
0.00193515
0.00196342
-0.000151255
-0.000185382
-0.000208453
-0.00021651
-0.000212638
-0.000199322
-0.000176729
-0.000143561
-9.73637e-05
-3.44776e-05
5.00827e-05
0.000162912
0.000312465
0.000508778
0.000763294
0.00108791
0.00147424
0.00186474
0.00212922
0.00217617
-0.000226805
-0.000265454
-0.000294701
-0.00031016
-0.000314733
-0.000311184
-0.000300017
-0.000280215
-0.000249481
-0.000204108
-0.000138716
-4.56225e-05
8.61149e-05
0.000271154
0.000527774
0.000887985
0.00135545
0.00187853
0.00224168
0.00233999
-0.00031432
-0.000357547
-0.00039315
-0.000416518
-0.000430616
-0.000438653
-0.000441656
-0.000439168
-0.000429489
-0.000409516
-0.000374444
-0.00031684
-0.000225307
-8.23659e-05
0.00013982
0.000468647
0.00093341
0.00153657
0.0020571
0.00222792
-0.000412061
-0.000460036
-0.000502142
-0.000533689
-0.000558021
-0.000579056
-0.000598598
-0.000617101
-0.000634002
-0.000647718
-0.000655473
-0.000652443
-0.000631013
-0.000581
-0.000487813
-0.000318586
-4.05259e-06
0.00053121
0.00127184
0.00156992
-0.000518408
-0.000571276
-0.000619808
-0.00065929
-0.000693874
-0.000728496
-0.000765993
-0.000808046
-0.000855726
-0.000909889
-0.000971299
-0.00104034
-0.00111789
-0.00121072
-0.00132683
-0.00143039
-0.00139661
-0.00102941
-0.000239884
0.000335184
-0.000632098
-0.000689844
-0.000744178
-0.00079047
-0.000834229
-0.000881752
-0.000937065
-0.00100323
-0.00108317
-0.00118071
-0.00130116
-0.00145179
-0.00164441
-0.00190553
-0.00226038
-0.00266456
-0.00289977
-0.0026757
-0.0019947
-0.00114728
-0.00075286
-0.000814975
-0.000873399
-0.000923947
-0.00097429
-0.00103238
-0.00110341
-0.00119178
-0.0013019
-0.00144049
-0.00161724
-0.00184617
-0.00214619
-0.00255514
-0.00309611
-0.00370146
-0.00410378
-0.00398399
-0.00344186
-0.00236835
-0.000881767
-0.00094654
-0.00100558
-0.00105583
-0.0011083
-0.0011729
-0.00125575
-0.00136231
-0.0014973
-0.00166993
-0.00189267
-0.00218422
-0.00256602
-0.00306811
-0.00370041
-0.00438258
-0.00486312
-0.00473968
-0.00437179
-0.00305592
-0.00102521
-0.00108663
-0.00113895
-0.00118099
-0.00122895
-0.00129481
-0.00138511
-0.00150397
-0.00165722
-0.001855
-0.00211048
-0.00244254
-0.00287324
-0.00341499
-0.0040572
-0.00470895
-0.00520779
-0.00487008
-0.00477616
-0.003064
-0.0011919
-0.00123331
-0.00126567
-0.00128779
-0.00132342
-0.00138599
-0.00147928
-0.00160533
-0.00177092
-0.00198499
-0.00226107
-0.00261576
-0.00306523
-0.00360916
-0.00421709
-0.00477322
-0.00505742
-0.00451793
-0.00454344
-0.00202589
-0.00141296
-0.00139345
-0.00137264
-0.00135491
-0.00137614
-0.00143368
-0.001526
-0.00165473
-0.00182732
-0.00205049
-0.002337
-0.00270057
-0.00314909
-0.00366446
-0.00419089
-0.00456968
-0.0045412
-0.00361182
-0.00320404
0.00102291
-0.00170845
-0.00154602
-0.00142481
-0.00136482
-0.00137154
-0.00142367
-0.00151378
-0.00164272
-0.00181795
-0.00204767
-0.0023413
-0.00270726
-0.00314567
-0.00360889
-0.0040053
-0.00408626
-0.00367248
-0.00208741
-0.000383268
0.00764663
-0.00242014
-0.00193249
-0.00169601
-0.00158813
-0.00157028
-0.00160786
-0.0016868
-0.001805
-0.00196642
-0.00218187
-0.0024631
-0.0028138
-0.00323292
-0.00364114
-0.00393776
-0.003799
-0.00276869
-0.000246471
0.00387494
0.0176367
-0.00104812
0.000957448
0.000747541
0.000471055
0.000286801
0.000121131
-7.42049e-05
-0.000304683
-0.000568755
-0.000870521
-0.00122692
-0.001641
-0.00209648
-0.00253766
-0.00278949
-0.00262136
-0.00145494
0.00174608
0.0080726
0.0216954
)
;

boundaryField
{
    movingWall
    {
        type            zeroGradient;
    }
    fixedWalls
    {
        type            zeroGradient;
    }
    frontAndBack
    {
        type            empty;
    }
}


// ************************************************************************* //
