/*--------------------------------*- C++ -*----------------------------------*\
| =========                 |                                                 |
| \\      /  F ield         | OpenFOAM: The Open Source CFD Toolbox           |
|  \\    /   O peration     | Version:  5.0                                   |
|   \\  /    A nd           | Web:      www.OpenFOAM.org                      |
|    \\/     M anipulation  |                                                 |
\*---------------------------------------------------------------------------*/
FoamFile
{
    version     2.0;
    format      ascii;
    class       surfaceScalarField;
    location    "1";
    object      phi;
}
// * * * * * * * * * * * * * * * * * * * * * * * * * * * * * * * * * * * * * //

dimensions      [0 3 -1 0 0 0 0];

internalField   nonuniform List<scalar> 
760
(
-2.08029e-08
2.08014e-08
-7.54294e-08
5.46264e-08
-1.4884e-07
7.34106e-08
-2.28551e-07
7.97106e-08
-3.07969e-07
7.94179e-08
-3.83892e-07
7.59229e-08
-4.54505e-07
7.06133e-08
-5.18315e-07
6.38103e-08
-5.73543e-07
5.52273e-08
-6.17753e-07
4.42107e-08
-6.47552e-07
2.97984e-08
-6.59954e-07
1.2402e-08
-6.49821e-07
-1.01326e-08
-6.13065e-07
-3.67558e-08
-5.46508e-07
-6.65573e-08
-4.49625e-07
-9.68828e-08
-3.27112e-07
-1.22513e-07
-1.92767e-07
-1.34345e-07
-7.28529e-08
-1.19914e-07
-7.28529e-08
-5.30582e-08
7.38595e-08
-1.26721e-07
1.28289e-07
-2.09366e-07
1.56055e-07
-2.96169e-07
1.66514e-07
-3.83192e-07
1.66441e-07
-4.67346e-07
1.60077e-07
-5.46176e-07
1.49444e-07
-6.17468e-07
1.35102e-07
-6.78904e-07
1.16664e-07
-7.27828e-07
9.31342e-08
-7.613e-07
6.32709e-08
-7.75114e-07
2.62155e-08
-7.65841e-07
-1.94053e-08
-7.29305e-07
-7.32916e-08
-6.62483e-07
-1.3338e-07
-5.64262e-07
-1.95104e-07
-4.37119e-07
-2.49657e-07
-2.8865e-07
-2.82814e-07
-1.32465e-07
-2.76099e-07
-2.05318e-07
-7.27373e-08
1.46597e-07
-1.55076e-07
2.10628e-07
-2.39907e-07
2.40886e-07
-3.26656e-07
2.53262e-07
-4.13633e-07
2.53418e-07
-4.98597e-07
2.45041e-07
-5.79274e-07
2.30121e-07
-6.53426e-07
2.09254e-07
-7.18731e-07
1.81968e-07
-7.72621e-07
1.47024e-07
-8.12129e-07
1.02778e-07
-8.33557e-07
4.76434e-08
-8.33126e-07
-1.98354e-08
-8.06275e-07
-1.00143e-07
-7.48588e-07
-1.91067e-07
-6.56407e-07
-2.87285e-07
-5.28123e-07
-3.77941e-07
-3.65829e-07
-4.45108e-07
-1.78213e-07
-4.63714e-07
-3.83531e-07
-8.16942e-08
2.28291e-07
-1.70046e-07
2.9898e-07
-2.58151e-07
3.28991e-07
-3.46384e-07
3.41495e-07
-4.34367e-07
3.41401e-07
-5.20831e-07
3.31505e-07
-6.04113e-07
3.13403e-07
-6.82392e-07
2.87533e-07
-7.53694e-07
2.5327e-07
-8.15773e-07
2.09103e-07
-8.6588e-07
1.52886e-07
-9.00474e-07
8.22373e-08
-9.15321e-07
-4.98826e-09
-9.04415e-07
-1.11049e-07
-8.60698e-07
-2.34785e-07
-7.75887e-07
-3.72095e-07
-6.42075e-07
-5.11753e-07
-4.55325e-07
-6.31858e-07
-2.24125e-07
-6.94915e-07
-6.07656e-07
-8.53513e-08
3.13642e-07
-1.78106e-07
3.91735e-07
-2.70206e-07
4.21092e-07
-3.61589e-07
4.32878e-07
-4.52355e-07
4.32167e-07
-5.41994e-07
4.21145e-07
-6.29586e-07
4.00995e-07
-7.13991e-07
3.71938e-07
-7.93887e-07
3.33166e-07
-8.67639e-07
2.82855e-07
-9.33012e-07
2.18259e-07
-9.86684e-07
1.35909e-07
-1.02394e-06
3.22636e-08
-1.0372e-06
-9.77882e-08
-1.01563e-06
-2.5635e-07
-9.44274e-07
-4.43452e-07
-8.05339e-07
-6.50688e-07
-5.84232e-07
-8.52965e-07
-2.88117e-07
-9.91029e-07
-8.95773e-07
-8.70097e-08
4.00652e-07
-1.83307e-07
4.88032e-07
-2.79559e-07
5.17344e-07
-3.75007e-07
5.28325e-07
-4.69807e-07
5.26967e-07
-5.63975e-07
5.15313e-07
-6.57331e-07
4.94351e-07
-7.49586e-07
4.64192e-07
-8.40346e-07
4.23926e-07
-9.28959e-07
3.71468e-07
-1.01415e-06
3.03446e-07
-1.09338e-06
2.1514e-07
-1.16159e-06
1.00477e-07
-1.21076e-06
-4.86199e-08
-1.2254e-06
-2.4171e-07
-1.18185e-06
-4.86998e-07
-1.04634e-06
-7.86199e-07
-7.82097e-07
-1.11721e-06
-3.87162e-07
-1.38596e-06
-1.28294e-06
-8.82347e-08
4.88887e-07
-1.8778e-07
5.87578e-07
-2.88183e-07
6.17747e-07
-3.8805e-07
6.28192e-07
-4.87453e-07
6.2637e-07
-5.86802e-07
6.14662e-07
-6.86644e-07
5.94193e-07
-7.87665e-07
5.65213e-07
-8.90671e-07
5.26931e-07
-9.96421e-07
4.77218e-07
-1.10522e-06
4.12247e-07
-1.21614e-06
3.26059e-07
-1.32535e-06
2.09683e-07
-1.42509e-06
5.11263e-08
-1.49654e-06
-1.70264e-07
-1.50579e-06
-4.77752e-07
-1.39439e-06
-8.97597e-07
-1.08033e-06
-1.43126e-06
-5.42258e-07
-1.92404e-06
-1.82519e-06
-8.97399e-08
5.78627e-07
-1.92599e-07
6.90437e-07
-2.9711e-07
7.22257e-07
-4.0133e-07
7.32413e-07
-5.05227e-07
7.30267e-07
-6.09544e-07
7.18979e-07
-7.15549e-07
7.00198e-07
-8.24997e-07
6.74662e-07
-9.40114e-07
6.42048e-07
-1.06348e-06
6.00589e-07
-1.1977e-06
5.46465e-07
-1.34457e-06
4.72926e-07
-1.50351e-06
3.6862e-07
-1.66755e-06
2.15167e-07
-1.82072e-06
-1.70892e-08
-1.91546e-06
-3.83018e-07
-1.85925e-06
-9.53808e-07
-1.49059e-06
-1.79992e-06
-7.79972e-07
-2.63466e-06
-2.60516e-06
-9.19096e-08
6.70536e-07
-1.98379e-07
7.96907e-07
-3.06901e-07
8.30779e-07
-4.15021e-07
8.40533e-07
-5.22596e-07
8.37842e-07
-6.30676e-07
8.27059e-07
-7.41219e-07
8.10741e-07
-8.57048e-07
7.9049e-07
-9.81874e-07
7.66874e-07
-1.1203e-06
7.39013e-07
-1.27764e-06
7.03811e-07
-1.45931e-06
6.54587e-07
-1.66931e-06
5.78624e-07
-1.90656e-06
4.52419e-07
-2.15519e-06
2.31536e-07
-2.35844e-06
-1.79765e-07
-2.36061e-06
-9.51638e-07
-1.94325e-06
-2.21727e-06
-1.08374e-06
-3.49417e-06
-3.6889e-06
-9.50765e-08
7.65613e-07
-2.05645e-07
9.07475e-07
-3.17991e-07
9.43125e-07
-4.29126e-07
9.51668e-07
-5.38799e-07
9.47515e-07
-6.48328e-07
9.36587e-07
-7.60268e-07
9.22681e-07
-8.78352e-07
9.08575e-07
-1.00755e-06
8.9607e-07
-1.15417e-06
8.85637e-07
-1.32591e-06
8.75549e-07
-1.53129e-06
8.59971e-07
-1.77829e-06
8.25621e-07
-2.06968e-06
7.43807e-07
-2.38518e-06
5.47038e-07
-2.62827e-06
6.33248e-08
-2.62035e-06
-9.59558e-07
-2.18991e-06
-2.64771e-06
-1.30806e-06
-4.37603e-06
-4.99696e-06
-9.97288e-08
8.65342e-07
-2.15081e-07
1.02283e-06
-3.30896e-07
1.05894e-06
-4.43614e-07
1.06439e-06
-5.52911e-07
1.05681e-06
-6.60353e-07
1.04403e-06
-7.68936e-07
1.03126e-06
-8.82949e-07
1.02259e-06
-1.00799e-06
1.02111e-06
-1.15108e-06
1.02873e-06
-1.32071e-06
1.04518e-06
-1.5262e-06
1.06546e-06
-1.77552e-06
1.07494e-06
-2.06848e-06
1.03677e-06
-2.37055e-06
8.49109e-07
-2.56817e-06
2.60938e-07
-2.4923e-06
-1.03543e-06
-2.1004e-06
-3.0396e-06
-1.30062e-06
-5.17581e-06
-6.29758e-06
-1.0665e-07
9.71992e-07
-2.27656e-07
1.14383e-06
-3.4621e-07
1.17749e-06
-4.5824e-07
1.17642e-06
-5.63538e-07
1.16211e-06
-6.64003e-07
1.1445e-06
-7.6291e-07
1.13017e-06
-8.64625e-07
1.1243e-06
-9.74442e-07
1.13092e-06
-1.0986e-06
1.15289e-06
-1.244e-06
1.19059e-06
-1.41731e-06
1.23876e-06
-1.621e-06
1.27864e-06
-1.84541e-06
1.26118e-06
-2.04434e-06
1.04804e-06
-2.12351e-06
3.40114e-07
-2.00623e-06
-1.15271e-06
-1.72316e-06
-3.32267e-06
-1.15806e-06
-5.74091e-06
-7.45564e-06
-1.17233e-07
1.08922e-06
-2.44712e-07
1.27131e-06
-3.6425e-07
1.29703e-06
-4.71782e-07
1.28395e-06
-5.67753e-07
1.25808e-06
-6.54721e-07
1.23146e-06
-7.36167e-07
1.21162e-06
-8.16131e-07
1.20427e-06
-8.98664e-07
1.21346e-06
-9.87797e-07
1.24202e-06
-1.08694e-06
1.28973e-06
-1.19794e-06
1.34976e-06
-1.31428e-06
1.39498e-06
-1.42028e-06
1.36718e-06
-1.47774e-06
1.10549e-06
-1.4558e-06
3.18178e-07
-1.36998e-06
-1.23853e-06
-1.23538e-06
-3.45727e-06
-9.38194e-07
-6.0381e-06
-8.39384e-06
-1.32699e-07
1.22192e-06
-2.67057e-07
1.40567e-06
-3.83723e-07
1.4137e-06
-4.80108e-07
1.38033e-06
-5.58673e-07
1.33665e-06
-6.23437e-07
1.29623e-06
-6.78162e-07
1.26634e-06
-7.26402e-07
1.2525e-06
-7.70243e-07
1.2573e-06
-8.11038e-07
1.28281e-06
-8.48385e-07
1.32707e-06
-8.78152e-07
1.37952e-06
-8.9181e-07
1.40864e-06
-8.74751e-07
1.35012e-06
-8.14879e-07
1.04562e-06
-7.3775e-07
2.41049e-07
-7.19907e-07
-1.25637e-06
-7.12405e-07
-3.46477e-06
-6.59784e-07
-6.09072e-06
-9.05362e-06
-1.58863e-07
1.38079e-06
-2.95915e-07
1.54272e-06
-3.99617e-07
1.5174e-06
-4.72296e-07
1.45301e-06
-5.20685e-07
1.38503e-06
-5.51535e-07
1.32708e-06
-5.68932e-07
1.28374e-06
-5.7468e-07
1.25825e-06
-5.69376e-07
1.25199e-06
-5.51816e-07
1.26525e-06
-5.18956e-07
1.29421e-06
-4.65214e-07
1.32578e-06
-3.84668e-07
1.3281e-06
-2.71104e-07
1.23656e-06
-1.44037e-07
9.18551e-07
-6.59104e-08
1.62922e-07
-8.78693e-08
-1.23442e-06
-2.37855e-07
-3.31478e-06
-3.80855e-07
-5.94772e-06
-9.43448e-06
-1.92077e-07
1.57286e-06
-3.234e-07
1.67405e-06
-3.93105e-07
1.5871e-06
-4.19598e-07
1.47951e-06
-4.20997e-07
1.38643e-06
-4.03414e-07
1.30949e-06
-3.69295e-07
1.24962e-06
-3.19047e-07
1.20801e-06
-2.5228e-07
1.18523e-06
-1.66816e-07
1.17979e-06
-5.93336e-08
1.18673e-06
7.36007e-08
1.19285e-06
2.32379e-07
1.16932e-06
4.09799e-07
1.05914e-06
5.69953e-07
7.58397e-07
6.3436e-07
9.8516e-08
5.15593e-07
-1.11565e-06
2.06995e-07
-3.00618e-06
-5.12943e-08
-5.68943e-06
-9.48577e-06
-2.77679e-07
1.85054e-06
-3.45197e-07
1.74156e-06
-3.28412e-07
1.57032e-06
-2.76457e-07
1.42755e-06
-2.00514e-07
1.31049e-06
-1.05292e-07
1.21427e-06
7.00939e-09
1.13732e-06
1.36254e-07
1.07876e-06
2.83494e-07
1.03799e-06
4.50298e-07
1.01299e-06
6.38125e-07
9.98905e-07
8.46408e-07
9.84565e-07
1.06808e-06
9.47647e-07
1.2866e-06
8.40618e-07
1.4538e-06
5.91196e-07
1.48207e-06
7.02466e-08
1.26133e-06
-8.94914e-07
8.03022e-07
-2.54787e-06
2.36755e-07
-5.12317e-06
-9.24902e-06
-3.05944e-07
2.15649e-06
-2.35328e-07
1.67095e-06
-7.58592e-08
1.41085e-06
1.13408e-07
1.23828e-06
3.19719e-07
1.10418e-06
5.39143e-07
9.94847e-07
7.68906e-07
9.07557e-07
1.00759e-06
8.40078e-07
1.25652e-06
7.89056e-07
1.51782e-06
7.51683e-07
1.79123e-06
7.25495e-07
2.07331e-06
7.02488e-07
2.35027e-06
6.7069e-07
2.60072e-06
5.90164e-07
2.76135e-06
4.30563e-07
2.78809e-06
4.35105e-08
2.4641e-06
-5.70926e-07
1.78317e-06
-1.86695e-06
7.56695e-07
-4.09669e-06
-8.49232e-06
-1.1262e-07
2.26911e-06
2.42693e-07
1.31563e-06
6.86442e-07
9.67101e-07
1.12899e-06
7.95732e-07
1.55526e-06
6.77918e-07
1.96539e-06
5.8471e-07
2.36093e-06
5.12025e-07
2.74315e-06
4.57854e-07
3.1149e-06
4.17305e-07
3.47804e-06
3.88549e-07
3.83617e-06
3.6736e-07
4.18997e-06
3.48691e-07
4.52332e-06
3.37342e-07
4.82616e-06
2.87322e-07
5.02089e-06
2.35836e-07
5.01584e-06
4.85554e-08
4.7254e-06
-2.80484e-07
3.87309e-06
-1.01464e-06
2.1701e-06
-2.3937e-06
-6.32222e-06
2.26911e-06
3.58474e-06
4.55184e-06
5.34757e-06
6.02549e-06
6.6102e-06
7.12223e-06
7.58008e-06
7.99738e-06
8.38593e-06
8.75329e-06
9.10198e-06
9.43933e-06
9.72665e-06
9.96248e-06
1.0011e-05
9.73055e-06
8.71592e-06
6.32222e-06
)
;

boundaryField
{
    movingWall
    {
        type            calculated;
        value           uniform 0;
    }
    fixedWalls
    {
        type            calculated;
        value           uniform 0;
    }
    frontAndBack
    {
        type            empty;
        value           nonuniform 0();
    }
}


// ************************************************************************* //
