/*--------------------------------*- C++ -*----------------------------------*\
| =========                 |                                                 |
| \\      /  F ield         | OpenFOAM: The Open Source CFD Toolbox           |
|  \\    /   O peration     | Version:  5.0                                   |
|   \\  /    A nd           | Web:      www.OpenFOAM.org                      |
|    \\/     M anipulation  |                                                 |
\*---------------------------------------------------------------------------*/
FoamFile
{
    version     2.0;
    format      ascii;
    class       volVectorField;
    location    "1";
    object      U;
}
// * * * * * * * * * * * * * * * * * * * * * * * * * * * * * * * * * * * * * //

dimensions      [0 1 -1 0 0 0 0];

internalField   nonuniform List<vector> 
400
(
(-9.85656e-05 0.000104261 0)
(-0.000810135 0.000533701 0)
(-0.00220991 0.00079442 0)
(-0.00377576 0.000875403 0)
(-0.00538291 0.000868623 0)
(-0.00694533 0.000826055 0)
(-0.00841727 0.000766255 0)
(-0.00976743 0.000692676 0)
(-0.0109643 0.000600737 0)
(-0.0119667 0.00048091 0)
(-0.0127294 0.000318675 0)
(-0.0131354 0.000141228 0)
(-0.0131838 -0.00011994 0)
(-0.0127115 -0.000421937 0)
(-0.0116753 -0.000760973 0)
(-0.0100283 -0.001104 0)
(-0.00780994 -0.00138289 0)
(-0.00519443 -0.0014708 0)
(-0.00249538 -0.00119319 0)
(-0.000601589 -0.00057097 0)
(-0.000513018 0.000807326 0)
(-0.00172828 0.00177539 0)
(-0.0033265 0.00229283 0)
(-0.0050486 0.00247998 0)
(-0.00680618 0.00247907 0)
(-0.00853089 0.00237711 0)
(-0.0101714 0.00221351 0)
(-0.0116828 0.00199854 0)
(-0.0130207 0.00172518 0)
(-0.0141366 0.0013759 0)
(-0.0149738 0.000927746 0)
(-0.015458 0.00036923 0)
(-0.0155175 -0.000318751 0)
(-0.0150669 -0.00113745 0)
(-0.0140351 -0.00204817 0)
(-0.0123747 -0.00297181 0)
(-0.010092 -0.00375629 0)
(-0.00729283 -0.00415128 0)
(-0.00419958 -0.00383555 0)
(-0.0013277 -0.00252715 0)
(-0.000794903 0.00217023 0)
(-0.002266 0.00335666 0)
(-0.00392453 0.00394789 0)
(-0.00565612 0.00418643 0)
(-0.00740997 0.00419137 0)
(-0.0091419 0.00404313 0)
(-0.0108095 0.00378398 0)
(-0.0123688 0.00342678 0)
(-0.0137747 0.00296355 0)
(-0.0149793 0.00237235 0)
(-0.0159271 0.00162477 0)
(-0.0165512 0.000695363 0)
(-0.0167773 -0.000438958 0)
(-0.0165196 -0.00177626 0)
(-0.0156858 -0.00327225 0)
(-0.014188 -0.0048215 0)
(-0.0119635 -0.0062236 0)
(-0.00903137 -0.00716335 0)
(-0.00552451 -0.00723217 0)
(-0.00188908 -0.00573971 0)
(-0.000914209 0.00373314 0)
(-0.0025324 0.00507188 0)
(-0.00426735 0.00567438 0)
(-0.00603718 0.00592656 0)
(-0.00781183 0.0059292 0)
(-0.00956643 0.00574552 0)
(-0.0112735 0.00541156 0)
(-0.0128989 0.0049382 0)
(-0.0144051 0.00431492 0)
(-0.0157507 0.0035146 0)
(-0.0168863 0.00249997 0)
(-0.0177503 0.00123199 0)
(-0.0182655 -0.000324509 0)
(-0.01833 -0.00218105 0)
(-0.0178111 -0.00430781 0)
(-0.0165467 -0.00659951 0)
(-0.0143597 -0.00883052 0)
(-0.0111488 -0.010611 0)
(-0.0069507 -0.0113524 0)
(-0.00238784 -0.00970949 0)
(-0.000954219 0.00540688 0)
(-0.00265747 0.00688742 0)
(-0.00447513 0.00747847 0)
(-0.00631179 0.00772181 0)
(-0.00814226 0.00771409 0)
(-0.00995335 0.00750307 0)
(-0.0117324 0.00711578 0)
(-0.0134595 0.00655866 0)
(-0.0151105 0.0058174 0)
(-0.0166565 0.00485884 0)
(-0.0180605 0.0036346 0)
(-0.0192696 0.00208729 0)
(-0.0202048 0.00015719 0)
(-0.0207475 -0.00220004 0)
(-0.020714 -0.00500448 0)
(-0.0198362 -0.00819514 0)
(-0.017768 -0.011561 0)
(-0.0141968 -0.0146293 0)
(-0.00897476 -0.0164868 0)
(-0.00305508 -0.0146922 0)
(-0.000966727 0.00713022 0)
(-0.00272459 0.00877856 0)
(-0.0046231 0.00936191 0)
(-0.00654015 0.00958845 0)
(-0.0084493 0.00956686 0)
(-0.010343 0.00933749 0)
(-0.0122215 0.00892072 0)
(-0.0140808 0.00831909 0)
(-0.0159148 0.00751487 0)
(-0.017714 0.0064686 0)
(-0.019462 0.00511933 0)
(-0.0211233 0.00338614 0)
(-0.0226279 0.00117091 0)
(-0.0238527 -0.00163479 0)
(-0.0245681 -0.00514105 0)
(-0.0243756 -0.0094057 0)
(-0.0226819 -0.0143193 0)
(-0.0187894 -0.0193764 0)
(-0.0121125 -0.0231023 0)
(-0.00409371 -0.0211577 0)
(-0.00097434 0.0088812 0)
(-0.00277683 0.0107361 0)
(-0.0047541 0.0113277 0)
(-0.00675632 0.0115405 0)
(-0.00875424 0.0115075 0)
(-0.010743 0.0112711 0)
(-0.0127341 0.0108508 0)
(-0.014741 0.0102488 0)
(-0.0167793 0.00944712 0)
(-0.0188658 0.00840234 0)
(-0.0210147 0.00704176 0)
(-0.0232236 0.00525861 0)
(-0.0254545 0.0029028 0)
(-0.0276043 -0.000226766 0)
(-0.0294252 -0.00437489 0)
(-0.0303918 -0.0098413 0)
(-0.0295688 -0.0167949 0)
(-0.0255677 -0.024918 0)
(-0.0169547 -0.0319004 0)
(-0.00576051 -0.0298061 0)
(-0.000986448 0.0106586 0)
(-0.00283532 0.0127585 0)
(-0.00489099 0.0133764 0)
(-0.00697782 0.0135819 0)
(-0.00906319 0.0135418 0)
(-0.0111439 0.0133099 0)
(-0.013242 0.012912 0)
(-0.015389 0.0123564 0)
(-0.017625 0.0116302 0)
(-0.0199996 0.0106925 0)
(-0.022568 0.00946474 0)
(-0.0253798 0.00781809 0)
(-0.0284566 0.00554878 0)
(-0.0317485 0.00234617 0)
(-0.0350586 -0.00224623 0)
(-0.0377852 -0.0088849 0)
(-0.0385609 -0.018379 0)
(-0.0347049 -0.031172 0)
(-0.0238353 -0.043801 0)
(-0.00867849 -0.0418023 0)
(-0.00100783 0.0124722 0)
(-0.00291193 0.0148498 0)
(-0.00504715 0.0155068 0)
(-0.00721335 0.0157076 0)
(-0.00937376 0.0156611 0)
(-0.0115263 0.0154406 0)
(-0.0137031 0.0150864 0)
(-0.0159529 0.0146203 0)
(-0.0183415 0.0140426 0)
(-0.0209524 0.0133245 0)
(-0.0238883 0.0123937 0)
(-0.0272614 0.0111128 0)
(-0.0311776 0.009239 0)
(-0.0356983 0.0063581 0)
(-0.0407117 0.00175071 0)
(-0.0456047 -0.00585505 0)
(-0.048669 -0.018698 0)
(-0.0443777 -0.0388805 0)
(-0.0313593 -0.0592512 0)
(-0.0136397 -0.0599429 0)
(-0.00104269 0.0143393 0)
(-0.00301678 0.0170178 0)
(-0.00523369 0.0177164 0)
(-0.00746884 0.0179048 0)
(-0.00967989 0.0178419 0)
(-0.0118656 0.0176288 0)
(-0.0140668 0.0173275 0)
(-0.0163476 0.0169806 0)
(-0.0187946 0.0166102 0)
(-0.0215206 0.0162102 0)
(-0.0246683 0.01573 0)
(-0.0284035 0.0150415 0)
(-0.0329022 0.0138841 0)
(-0.0383166 0.0117461 0)
(-0.0446312 0.00754173 0)
(-0.051065 -0.00118309 0)
(-0.0544179 -0.0190064 0)
(-0.0498174 -0.0490079 0)
(-0.0344045 -0.0782851 0)
(-0.0194314 -0.0856857 0)
(-0.00109762 0.0162842 0)
(-0.00316381 0.0192746 0)
(-0.00546433 0.0200004 0)
(-0.00775074 0.0201511 0)
(-0.00997357 0.0200446 0)
(-0.0121328 0.0198168 0)
(-0.0142766 0.019557 0)
(-0.0164792 0.0193335 0)
(-0.0188391 0.0191954 0)
(-0.0214825 0.0191663 0)
(-0.0245666 0.0192264 0)
(-0.0282714 0.0192673 0)
(-0.0327787 0.0190111 0)
(-0.038245 0.0178023 0)
(-0.0446481 0.0139598 0)
(-0.050752 0.00337694 0)
(-0.0529358 -0.0205312 0)
(-0.0471146 -0.0587073 0)
(-0.0336293 -0.0982323 0)
(-0.0172912 -0.114803 0)
(-0.00118433 0.0183484 0)
(-0.00337386 0.0216372 0)
(-0.00575697 0.0223496 0)
(-0.00806428 0.0224116 0)
(-0.0102397 0.0222102 0)
(-0.0122874 0.0219216 0)
(-0.0142631 0.0216644 0)
(-0.0162452 0.0215325 0)
(-0.0183301 0.0215996 0)
(-0.0206343 0.0219158 0)
(-0.0232918 0.0224855 0)
(-0.0264396 0.0232092 0)
(-0.0301766 0.0237552 0)
(-0.0345671 0.0232464 0)
(-0.0393994 0.0192203 0)
(-0.0433438 0.00610673 0)
(-0.0431408 -0.0227481 0)
(-0.0374875 -0.0656274 0)
(-0.0296398 -0.112062 0)
(-0.0130609 -0.140429 0)
(-0.001327 0.0205761 0)
(-0.00367991 0.0241202 0)
(-0.00613088 0.0247421 0)
(-0.00840183 0.0246293 0)
(-0.0104371 0.0242522 0)
(-0.0122543 0.0238307 0)
(-0.0139201 0.0235088 0)
(-0.0155127 0.0233982 0)
(-0.017113 0.0235844 0)
(-0.0188041 0.0241289 0)
(-0.0206644 0.0250371 0)
(-0.0227525 0.026188 0)
(-0.0250298 0.0271455 0)
(-0.0274105 0.0267577 0)
(-0.029609 0.0219539 0)
(-0.0307069 0.00671662 0)
(-0.0291668 -0.0245129 0)
(-0.0255485 -0.0691171 0)
(-0.0242516 -0.119613 0)
(-0.00880705 -0.160901 0)
(-0.00154409 0.023126 0)
(-0.00411164 0.0267521 0)
(-0.00658624 0.027131 0)
(-0.00870996 0.0267067 0)
(-0.0104542 0.0260416 0)
(-0.0118706 0.0253944 0)
(-0.0130484 0.0249205 0)
(-0.0140616 0.0247316 0)
(-0.014967 0.0249062 0)
(-0.0158011 0.0254946 0)
(-0.0165767 0.0264793 0)
(-0.0172852 0.027697 0)
(-0.0177218 0.0284945 0)
(-0.0178576 0.0277006 0)
(-0.017409 0.0219815 0)
(-0.0162531 0.00580041 0)
(-0.0148172 -0.0252477 0)
(-0.0129015 -0.0699848 0)
(-0.0177434 -0.122419 0)
(-0.00393818 -0.176859 0)
(-0.00197015 0.025912 0)
(-0.0047564 0.02946 0)
(-0.00708532 0.0293744 0)
(-0.00882334 0.0284531 0)
(-0.0100203 0.0273699 0)
(-0.0107836 0.0264065 0)
(-0.0112618 0.0256882 0)
(-0.0114787 0.0253252 0)
(-0.0114769 0.0253423 0)
(-0.0112509 0.0257709 0)
(-0.0107556 0.0265535 0)
(-0.00991869 0.0274409 0)
(-0.00862145 0.0278022 0)
(-0.00676416 0.0262845 0)
(-0.00438661 0.0199525 0)
(-0.00194909 0.00410092 0)
(-0.00165623 -0.0251971 0)
(-0.000516626 -0.0683501 0)
(-0.0116233 -0.121837 0)
(0.000966355 -0.188675 0)
(-0.0024493 0.0297841 0)
(-0.00555992 0.0322989 0)
(-0.00738411 0.0312464 0)
(-0.00823221 0.0295727 0)
(-0.00849922 0.0279657 0)
(-0.00832764 0.026624 0)
(-0.00780045 0.0256094 0)
(-0.00695105 0.0249553 0)
(-0.00577834 0.0246894 0)
(-0.00426385 0.0247941 0)
(-0.00234703 0.0251754 0)
(3.47356e-05 0.0255605 0)
(0.00292354 0.0253266 0)
(0.00628767 0.0232203 0)
(0.00973751 0.016855 0)
(0.0123323 0.00247811 0)
(0.0114507 -0.0239416 0)
(0.0119542 -0.0641718 0)
(-0.00681192 -0.118588 0)
(0.00712192 -0.195827 0)
(-0.00408945 0.0333072 0)
(-0.00697669 0.0344903 0)
(-0.00679987 0.0320568 0)
(-0.00618865 0.0295295 0)
(-0.00488219 0.0274241 0)
(-0.00314758 0.0256918 0)
(-0.0010573 0.0243202 0)
(0.00135287 0.0233144 0)
(0.00412459 0.0226742 0)
(0.00726379 0.0223708 0)
(0.0108048 0.022293 0)
(0.0147595 0.0221833 0)
(0.0190474 0.0215177 0)
(0.023486 0.0192499 0)
(0.0273994 0.0135923 0)
(0.0297937 0.0014254 0)
(0.0276675 -0.0204934 0)
(0.0266439 -0.0564396 0)
(-0.00142492 -0.111014 0)
(0.0167124 -0.19375 0)
(-0.00539441 0.0431566 0)
(-0.00606476 0.0365461 0)
(-0.00323608 0.0318919 0)
(0.000221369 0.0286111 0)
(0.00423025 0.0259759 0)
(0.00852354 0.0238152 0)
(0.0130426 0.0220699 0)
(0.0177424 0.0206948 0)
(0.0225962 0.0196501 0)
(0.0277055 0.0188847 0)
(0.0330516 0.0183411 0)
(0.0386062 0.0178385 0)
(0.0441621 0.0170238 0)
(0.0495176 0.0150688 0)
(0.0535787 0.0109315 0)
(0.0560925 0.00207578 0)
(0.0529432 -0.0141745 0)
(0.049223 -0.044227 0)
(0.0103459 -0.0935053 0)
(0.0336095 -0.174283 0)
(-0.00348963 0.0348389 0)
(0.000116301 0.0217574 0)
(0.00913132 0.0177293 0)
(0.0181029 0.0151053 0)
(0.0268638 0.0129827 0)
(0.0352656 0.0112033 0)
(0.0433342 0.00982919 0)
(0.0511208 0.00883896 0)
(0.0586575 0.00814628 0)
(0.0659975 0.00767923 0)
(0.0731579 0.00739552 0)
(0.080277 0.0071678 0)
(0.0870073 0.00686327 0)
(0.0935013 0.00584906 0)
(0.098181 0.00390206 0)
(0.100831 -0.00123147 0)
(0.0974315 -0.00975948 0)
(0.0911073 -0.0295724 0)
(0.0460513 -0.0645499 0)
(0.0692559 -0.13385 0)
(0.0485888 0.0660026 0)
(0.0534556 0.0419058 0)
(0.0806042 0.0298266 0)
(0.100131 0.024096 0)
(0.114703 0.02059 0)
(0.126869 0.017973 0)
(0.137585 0.0158826 0)
(0.147279 0.0142398 0)
(0.155987 0.0129232 0)
(0.164089 0.0119359 0)
(0.171433 0.011125 0)
(0.178664 0.0103952 0)
(0.184961 0.0101083 0)
(0.191373 0.00879255 0)
(0.195854 0.00841622 0)
(0.199295 0.00450235 0)
(0.196918 0.00103429 0)
(0.188198 -0.00650536 0)
(0.148113 -0.0220336 0)
(0.144522 -0.129054 0)
)
;

boundaryField
{
    movingWall
    {
        type            fixedValue;
        value           uniform (1 0 0);
    }
    fixedWalls
    {
        type            noSlip;
    }
    frontAndBack
    {
        type            empty;
    }
}


// ************************************************************************* //
