/*--------------------------------*- C++ -*----------------------------------*\
| =========                 |                                                 |
| \\      /  F ield         | OpenFOAM: The Open Source CFD Toolbox           |
|  \\    /   O peration     | Version:  5.0                                   |
|   \\  /    A nd           | Web:      www.OpenFOAM.org                      |
|    \\/     M anipulation  |                                                 |
\*---------------------------------------------------------------------------*/
FoamFile
{
    version     2.0;
    format      ascii;
    class       volScalarField;
    location    "3.5";
    object      k;
}
// * * * * * * * * * * * * * * * * * * * * * * * * * * * * * * * * * * * * * //

dimensions      [0 2 -2 0 0 0 0];

internalField   nonuniform List<scalar> 
400
(
4.89257e-10
4.54542e-09
6.55232e-09
2.40189e-08
1.30343e-07
5.20889e-07
1.25435e-06
2.10643e-06
2.96027e-06
3.84586e-06
4.71301e-06
5.73783e-06
7.0136e-06
8.81335e-06
9.64977e-06
9.93435e-06
8.7087e-06
5.05891e-06
2.13649e-06
9.25241e-07
6.02784e-09
9.9798e-08
1.85061e-07
5.98428e-07
1.91553e-06
5.43009e-06
1.34989e-05
2.69016e-05
4.34446e-05
6.2364e-05
7.78329e-05
9.08312e-05
9.70228e-05
9.92092e-05
9.8229e-05
8.85108e-05
7.14946e-05
3.94953e-05
1.33186e-05
4.53996e-06
2.98777e-08
4.13542e-07
1.12661e-06
3.49615e-06
1.04756e-05
2.99961e-05
7.35192e-05
0.000140396
0.000200403
0.000254682
0.000292265
0.000314387
0.00032316
0.000324191
0.000301264
0.000274164
0.00022806
0.000145477
4.28429e-05
1.10271e-05
1.12082e-07
1.29637e-06
3.81353e-06
1.17734e-05
3.67524e-05
0.000107514
0.000208918
0.000271197
0.000329215
0.000374535
0.000412741
0.000443028
0.000461838
0.000484152
0.000496374
0.000500062
0.000460862
0.000352187
0.000108336
1.88368e-05
3.52384e-07
3.55701e-06
1.01817e-05
3.18236e-05
9.01181e-05
0.000185968
0.000252997
0.000285925
0.000324385
0.000352935
0.000384437
0.000421567
0.000459856
0.000501593
0.000548949
0.000604558
0.000623327
0.00056915
0.000216441
2.72627e-05
6.73192e-07
7.32336e-06
2.06844e-05
5.5625e-05
0.000131808
0.000214468
0.00024745
0.000259036
0.000258209
0.000253943
0.000275597
0.000324685
0.000380728
0.000450551
0.000533251
0.000642077
0.000729922
0.000730221
0.000359879
3.58804e-05
8.2123e-07
9.11694e-06
2.77338e-05
7.49453e-05
0.000164832
0.000209261
0.000219796
0.000179203
0.000147132
0.000137992
0.00014798
0.000196652
0.000273162
0.000364882
0.000473435
0.000622971
0.000797851
0.00085777
0.000486484
4.41365e-05
9.37716e-07
1.21312e-05
3.56835e-05
9.02605e-05
0.000164781
0.00019109
0.000166722
0.000109406
8.53779e-05
7.82796e-05
8.07335e-05
0.000104308
0.000164606
0.000279362
0.000411194
0.000580736
0.000821944
0.000962556
0.000622315
5.27689e-05
8.4211e-07
1.22588e-05
3.59989e-05
9.11581e-05
0.000158092
0.000165789
0.000125632
7.96312e-05
6.53089e-05
6.2034e-05
6.30026e-05
6.92543e-05
0.000102469
0.000198773
0.00035698
0.0005493
0.000825405
0.00104425
0.000742124
6.09464e-05
5.88793e-07
1.15993e-05
3.43755e-05
8.65683e-05
0.000145769
0.000149728
0.000108309
7.29328e-05
6.33513e-05
6.25657e-05
6.24669e-05
6.14691e-05
7.75394e-05
0.00014913
0.000314408
0.000527731
0.000819528
0.00111479
0.00086085
6.9506e-05
4.33373e-07
9.92003e-06
3.03639e-05
7.56322e-05
0.000127051
0.000135688
0.000109027
7.53713e-05
6.55482e-05
6.82728e-05
6.87697e-05
6.24226e-05
7.03212e-05
0.000125387
0.000288248
0.000518982
0.000812841
0.00117278
0.000963555
7.77425e-05
3.05316e-07
7.00702e-06
2.36176e-05
5.81486e-05
0.000111454
0.000123524
0.00011162
8.60865e-05
7.61589e-05
7.71257e-05
7.37702e-05
6.40564e-05
6.92714e-05
0.000117124
0.000277052
0.000520029
0.000810506
0.00122123
0.00104903
8.65315e-05
2.0555e-07
4.24812e-06
1.60761e-05
3.87648e-05
8.59223e-05
0.000111229
0.000108504
9.79343e-05
8.76911e-05
8.38424e-05
7.45273e-05
6.41734e-05
6.9615e-05
0.000118457
0.000282301
0.000528493
0.00080304
0.00125546
0.00109852
9.58097e-05
1.55338e-07
2.68718e-06
1.04011e-05
2.35581e-05
5.32987e-05
8.45238e-05
9.72216e-05
9.45601e-05
8.81741e-05
8.24342e-05
6.72207e-05
6.08331e-05
7.00761e-05
0.000130447
0.000301842
0.000532586
0.000782631
0.00126891
0.00111587
0.000107015
1.32927e-07
2.01981e-06
7.64038e-06
1.51349e-05
2.99528e-05
5.12506e-05
6.74862e-05
7.38082e-05
7.17147e-05
6.4292e-05
5.5375e-05
5.67248e-05
7.55499e-05
0.000161429
0.000325179
0.0005329
0.000759763
0.00126932
0.00108891
0.000121072
1.30967e-07
2.05434e-06
7.54487e-06
1.39433e-05
2.15062e-05
3.33191e-05
4.30636e-05
4.92305e-05
5.04661e-05
5.02522e-05
5.18061e-05
6.16382e-05
9.98913e-05
0.00021127
0.000345062
0.000531705
0.000747204
0.00124055
0.000988481
0.000131582
1.49718e-07
2.51494e-06
9.09367e-06
1.57496e-05
2.21824e-05
3.18124e-05
3.95953e-05
4.68259e-05
5.07072e-05
5.51611e-05
6.57222e-05
9.34599e-05
0.000156499
0.000268544
0.000394479
0.000580447
0.000795735
0.00122828
0.00091045
0.000136314
4.49573e-07
4.89585e-06
1.72286e-05
3.01117e-05
4.01998e-05
5.37582e-05
6.47507e-05
8.09339e-05
9.45373e-05
0.000121223
0.000155909
0.000231435
0.000326036
0.000484615
0.000647662
0.000863831
0.00115361
0.00133366
0.000779956
0.000136934
2.68022e-06
2.11171e-05
6.87692e-05
0.00014109
0.000195686
0.000279732
0.000326303
0.00041793
0.000481953
0.000616372
0.000736453
0.000968581
0.00116
0.00149489
0.00170467
0.00213622
0.00208776
0.0016304
0.000574444
0.000122874
1.34894e-06
3.93541e-06
1.08634e-05
2.62831e-05
3.8862e-05
5.81859e-05
7.14497e-05
8.59892e-05
9.89964e-05
0.000109707
0.000125536
0.000137222
0.000160921
0.000177557
0.000204542
0.000219846
0.000214118
0.000198801
0.000166024
9.53142e-05
)
;

boundaryField
{
    movingWall
    {
        type            kqRWallFunction;
        value           nonuniform List<scalar> 
20
(
1.34894e-06
3.93541e-06
1.08634e-05
2.62831e-05
3.8862e-05
5.81859e-05
7.14497e-05
8.59892e-05
9.89964e-05
0.000109707
0.000125536
0.000137222
0.000160921
0.000177557
0.000204542
0.000219846
0.000214118
0.000198801
0.000166024
9.53142e-05
)
;
    }
    fixedWalls
    {
        type            kqRWallFunction;
        value           nonuniform List<scalar> 
60
(
4.89257e-10
6.02784e-09
2.98777e-08
1.12082e-07
3.52384e-07
6.73192e-07
8.2123e-07
9.37716e-07
8.4211e-07
5.88793e-07
4.33373e-07
3.05316e-07
2.0555e-07
1.55338e-07
1.32927e-07
1.30967e-07
1.49718e-07
4.49573e-07
2.68022e-06
1.34894e-06
9.25241e-07
4.53996e-06
1.10271e-05
1.88368e-05
2.72627e-05
3.58804e-05
4.41365e-05
5.27689e-05
6.09464e-05
6.9506e-05
7.77425e-05
8.65315e-05
9.58097e-05
0.000107015
0.000121072
0.000131582
0.000136314
0.000136934
0.000122874
9.53142e-05
4.89257e-10
4.54542e-09
6.55232e-09
2.40189e-08
1.30343e-07
5.20889e-07
1.25435e-06
2.10643e-06
2.96027e-06
3.84586e-06
4.71301e-06
5.73783e-06
7.0136e-06
8.81335e-06
9.64977e-06
9.93435e-06
8.7087e-06
5.05891e-06
2.13649e-06
9.25241e-07
)
;
    }
    frontAndBack
    {
        type            empty;
    }
}


// ************************************************************************* //
