/*--------------------------------*- C++ -*----------------------------------*\
| =========                 |                                                 |
| \\      /  F ield         | OpenFOAM: The Open Source CFD Toolbox           |
|  \\    /   O peration     | Version:  5.0                                   |
|   \\  /    A nd           | Web:      www.OpenFOAM.org                      |
|    \\/     M anipulation  |                                                 |
\*---------------------------------------------------------------------------*/
FoamFile
{
    version     2.0;
    format      ascii;
    class       volScalarField;
    location    "3.5";
    object      nut;
}
// * * * * * * * * * * * * * * * * * * * * * * * * * * * * * * * * * * * * * //

dimensions      [0 2 -1 0 0 0 0];

internalField   nonuniform List<scalar> 
400
(
3.82232e-12
3.55111e-11
5.119e-11
1.87648e-10
1.01831e-09
4.06944e-09
9.79965e-09
1.64565e-08
2.31271e-08
3.00458e-08
3.68204e-08
4.48268e-08
5.47938e-08
6.88543e-08
7.53888e-08
7.76121e-08
6.80367e-08
3.95227e-08
1.66913e-08
7.22844e-09
4.70925e-11
3.06883e-09
5.09269e-09
9.75949e-09
2.57883e-08
7.15117e-08
2.077e-07
4.99826e-07
9.53332e-07
1.65887e-06
2.30197e-06
2.88372e-06
3.14157e-06
2.98573e-06
2.76944e-06
2.2053e-06
1.51519e-06
6.61427e-07
1.57669e-07
3.54685e-08
2.3342e-10
1.46223e-08
3.02445e-08
7.21796e-08
2.10886e-07
7.26454e-07
2.45827e-06
5.70238e-06
9.51953e-06
1.30788e-05
1.54349e-05
1.66706e-05
1.63798e-05
1.5366e-05
1.27603e-05
9.8717e-06
6.44036e-06
2.94084e-06
5.45305e-07
8.61494e-08
8.7564e-10
4.35656e-08
1.05718e-07
3.03822e-07
1.06868e-06
4.57084e-06
1.17658e-05
1.80086e-05
2.43075e-05
2.90565e-05
3.26111e-05
3.50953e-05
3.51986e-05
3.45421e-05
3.12429e-05
2.60015e-05
1.79918e-05
9.12485e-06
1.57136e-06
1.47162e-07
2.753e-09
1.13469e-07
3.10366e-07
1.01148e-06
3.79658e-06
1.18603e-05
2.03384e-05
2.61542e-05
3.17899e-05
3.56373e-05
3.91999e-05
4.30158e-05
4.57955e-05
4.74175e-05
4.56419e-05
4.01405e-05
2.98424e-05
1.72249e-05
3.46895e-06
2.1299e-07
5.25932e-09
2.37065e-07
7.10797e-07
2.16826e-06
7.64037e-06
1.7804e-05
2.43727e-05
2.75977e-05
2.83758e-05
2.81163e-05
3.0344e-05
3.56846e-05
4.19881e-05
4.94306e-05
5.41157e-05
5.26173e-05
4.21358e-05
2.57351e-05
6.34267e-06
2.80316e-07
6.41586e-09
3.0609e-07
1.06559e-06
3.49303e-06
1.20614e-05
2.02298e-05
2.38035e-05
2.02672e-05
1.68421e-05
1.55996e-05
1.6291e-05
2.15065e-05
3.04653e-05
4.17663e-05
5.3287e-05
5.79612e-05
5.13374e-05
3.2807e-05
9.09454e-06
3.44816e-07
7.3259e-09
4.19888e-07
1.51021e-06
4.80556e-06
1.36188e-05
2.00085e-05
1.93433e-05
1.33297e-05
1.05864e-05
9.54646e-06
9.13469e-06
1.13416e-05
1.776e-05
3.21348e-05
4.84028e-05
6.00908e-05
5.89839e-05
4.00613e-05
1.22415e-05
4.12257e-07
6.57898e-09
4.37473e-07
1.64279e-06
5.30806e-06
1.43242e-05
1.86931e-05
1.56858e-05
1.05943e-05
8.93101e-06
8.48491e-06
7.94027e-06
7.662e-06
1.07918e-05
2.18469e-05
4.24591e-05
6.01216e-05
6.34846e-05
4.54765e-05
1.50275e-05
4.76144e-07
4.59994e-09
4.0574e-07
1.64938e-06
5.26097e-06
1.33083e-05
1.74577e-05
1.43358e-05
1.03805e-05
9.29238e-06
9.17825e-06
8.53173e-06
7.14061e-06
7.97989e-06
1.55112e-05
3.68151e-05
5.92186e-05
6.75399e-05
5.12552e-05
1.78777e-05
5.43016e-07
3.38573e-09
3.2099e-07
1.47441e-06
4.57436e-06
1.1347e-05
1.56469e-05
1.44441e-05
1.08325e-05
9.77292e-06
1.01592e-05
9.7105e-06
7.44251e-06
7.0467e-06
1.2451e-05
3.22242e-05
5.84573e-05
7.01923e-05
5.55492e-05
2.02994e-05
6.07364e-07
2.38528e-09
1.94758e-07
1.12703e-06
3.44629e-06
9.41772e-06
1.36579e-05
1.44642e-05
1.22021e-05
1.12204e-05
1.12804e-05
1.01869e-05
7.37031e-06
6.66054e-06
1.11081e-05
2.9931e-05
5.82373e-05
7.22674e-05
5.96861e-05
2.24916e-05
6.76027e-07
1.60586e-09
1.00558e-07
7.27655e-07
2.20233e-06
6.54303e-06
1.12115e-05
1.31083e-05
1.31811e-05
1.2247e-05
1.15036e-05
9.46167e-06
6.68031e-06
6.33321e-06
1.08888e-05
3.00551e-05
5.90852e-05
7.34457e-05
6.25355e-05
2.41809e-05
7.48513e-07
1.21358e-09
5.70334e-08
4.22096e-07
1.23408e-06
3.45566e-06
7.04531e-06
9.94716e-06
1.11397e-05
1.0613e-05
9.59495e-06
7.05463e-06
5.54306e-06
6.12877e-06
1.18409e-05
3.27623e-05
6.03041e-05
7.29774e-05
6.41375e-05
2.52451e-05
8.36057e-07
1.03849e-09
4.27836e-08
3.04416e-07
7.69115e-07
1.7419e-06
3.46602e-06
5.21171e-06
6.47468e-06
6.48396e-06
5.75038e-06
4.82901e-06
4.84486e-06
6.50271e-06
1.5411e-05
3.73475e-05
6.10567e-05
7.13556e-05
6.45255e-05
2.49129e-05
9.45877e-07
1.02318e-09
4.59547e-08
3.10518e-07
7.17741e-07
1.22556e-06
2.06293e-06
2.87391e-06
3.5452e-06
3.83407e-06
4.00074e-06
4.23114e-06
5.2016e-06
9.28639e-06
2.26188e-05
4.07307e-05
6.07889e-05
6.84481e-05
6.20953e-05
2.22574e-05
1.02799e-06
1.16967e-09
6.62714e-08
4.09944e-07
8.76535e-07
1.31372e-06
1.98997e-06
2.62279e-06
3.29892e-06
3.80037e-06
4.43867e-06
5.75273e-06
9.0973e-06
1.68383e-05
3.02037e-05
4.3911e-05
5.89892e-05
6.26619e-05
5.54638e-05
1.9131e-05
1.06495e-06
3.51229e-09
1.76402e-07
9.67824e-07
1.96665e-06
2.73848e-06
3.72111e-06
4.61492e-06
6.015e-06
7.4262e-06
9.97286e-06
1.34471e-05
2.01124e-05
2.7938e-05
3.93468e-05
4.7389e-05
5.56632e-05
5.97318e-05
4.50391e-05
1.3707e-05
1.0698e-06
2.09392e-08
7.5334e-07
3.17389e-06
6.78547e-06
9.40062e-06
1.3158e-05
1.51337e-05
1.86892e-05
2.09421e-05
2.51058e-05
2.83675e-05
3.36066e-05
3.73509e-05
4.36799e-05
4.61036e-05
5.33137e-05
4.65518e-05
2.84729e-05
6.71233e-06
9.59953e-07
1.05386e-08
3.07454e-08
8.48701e-08
2.05337e-07
3.0361e-07
4.54577e-07
5.58201e-07
6.71791e-07
7.73409e-07
8.57089e-07
9.80751e-07
1.07204e-06
1.2572e-06
1.38716e-06
1.59798e-06
1.71754e-06
1.6728e-06
1.55313e-06
1.29707e-06
7.44643e-07
)
;

boundaryField
{
    movingWall
    {
        type            nutkWallFunction;
        Cmu             0.09;
        kappa           0.41;
        E               9.8;
        value           uniform 0;
    }
    fixedWalls
    {
        type            nutkWallFunction;
        Cmu             0.09;
        kappa           0.41;
        E               9.8;
        value           uniform 0;
    }
    frontAndBack
    {
        type            empty;
    }
}


// ************************************************************************* //
