/*--------------------------------*- C++ -*----------------------------------*\
| =========                 |                                                 |
| \\      /  F ield         | OpenFOAM: The Open Source CFD Toolbox           |
|  \\    /   O peration     | Version:  5.0                                   |
|   \\  /    A nd           | Web:      www.OpenFOAM.org                      |
|    \\/     M anipulation  |                                                 |
\*---------------------------------------------------------------------------*/
FoamFile
{
    version     2.0;
    format      ascii;
    class       volScalarField;
    location    "3.5";
    object      omega;
}
// * * * * * * * * * * * * * * * * * * * * * * * * * * * * * * * * * * * * * //

dimensions      [0 0 -1 0 0 0 0];

internalField   nonuniform List<scalar> 
400
(
128
128
128
128
128
128
128
128
128
128
128
128
128
128
128
128
128
128
128
128
128
32.5199
36.3386
61.3176
74.2791
75.9329
64.9926
53.822
45.5714
37.5944
33.8114
31.4979
30.8836
33.2278
35.4689
40.1355
47.1851
59.7123
84.4716
128
128
28.2817
37.25
48.4369
49.6741
41.2911
29.9069
24.6206
21.0518
19.473
18.9353
18.8588
19.7292
21.0979
23.6095
27.7727
35.4112
49.4679
78.567
128
128
29.7567
36.0726
38.7509
34.3903
23.5217
17.7564
15.0593
13.5438
12.8899
12.6565
12.6236
13.1209
14.0163
15.8876
19.2321
25.615
38.5964
68.944
128
128
31.3479
32.8056
31.4624
23.7367
15.6798
12.4394
10.9323
10.204
9.90352
9.8071
9.80028
10.0415
10.5782
12.0273
15.0611
20.8873
33.0424
62.3937
128
128
30.8918
29.1003
25.6542
17.2515
12.046
10.1527
9.38615
9.09962
9.03189
9.0824
9.09876
9.06752
9.11481
9.85391
12.2028
17.3231
28.3745
56.7394
128
128
29.7851
26.0267
21.4557
13.666
10.3442
9.2338
8.84202
8.73599
8.8459
9.08353
9.14387
8.96634
8.73629
8.88463
10.7481
15.5413
26.146
53.4919
128
128
28.8915
23.6281
18.7825
12.0995
9.55041
8.6191
8.20767
8.0649
8.19985
8.83812
9.19691
9.26835
8.69343
8.49526
9.6643
13.9351
24.0271
50.8367
128
128
28.0219
21.9133
17.1735
11.0366
8.86895
8.00928
7.51641
7.3126
7.3111
7.93457
9.03868
9.49504
9.09848
8.40764
9.13649
13.0017
22.9625
49.3842
128
128
28.5881
20.8414
16.4548
10.9533
8.57659
7.55511
7.02592
6.81756
6.81673
7.32171
8.60838
9.71686
9.61436
8.5402
8.91158
12.134
21.7498
48.1522
128
128
30.9045
20.594
16.534
11.1969
8.67187
7.54821
6.95787
6.70712
6.72032
7.08199
8.38731
9.97931
10.0705
8.94509
8.87798
11.5802
21.1124
47.4672
128
128
35.9781
20.9556
16.8728
11.8345
9.04412
7.71696
7.05507
6.78752
6.83716
7.24165
8.69114
10.4003
10.5441
9.25636
8.92948
11.2154
20.461
46.641
128
128
42.2457
22.093
17.6017
13.1319
9.92092
8.27752
7.42988
7.16018
7.28839
7.87676
9.60635
10.9921
10.8788
9.3928
8.9446
10.9338
20.0759
45.429
128
128
47.1159
24.6415
19.0895
15.4236
11.9972
9.77381
8.48855
8.30811
8.59142
9.52859
10.9746
11.434
11.0166
9.2131
8.83166
10.7243
19.7843
44.2013
128
128
47.21
25.0985
19.6783
17.1955
14.7866
12.949
11.3995
11.0603
11.1805
11.4671
11.7082
11.6182
10.4749
8.70683
8.72795
10.6475
19.6716
43.7089
128
128
44.7035
24.2976
19.4266
17.5481
16.1513
14.9843
13.8865
13.1626
12.5607
12.244
11.8498
10.7567
9.34046
8.47179
8.74675
10.9164
19.9781
44.4113
128
128
37.949
22.1827
17.968
16.8852
15.9864
15.0966
14.1943
13.3427
12.4274
11.4245
10.2734
9.29422
8.89111
8.9836
9.83988
12.6989
22.1456
47.5904
128
128
27.7539
17.8013
15.3111
14.6796
14.4468
14.0307
13.4554
12.7302
12.1553
11.5942
11.5071
11.67
12.3165
13.6669
15.5189
19.3132
29.6112
56.9021
128
128
28.0313
21.6672
20.793
20.8163
21.2595
21.5614
22.362
23.0136
24.551
25.9612
28.8212
31.0569
34.2237
36.9748
40.0689
44.848
57.2617
85.5804
128
128
128
128
128
128
128
128
128
128
128
128
128
128
128
128
128
128
128
128
128
)
;

boundaryField
{
    movingWall
    {
        Cmu             0.09;
        kappa           0.41;
        E               9.8;
        beta1           0.075;
        blended         false;
        type            omegaWallFunction;
        value           nonuniform List<scalar> 
20
(
128
128
128
128
128
128
128
128
128
128
128
128
128
128
128
128
128
128
128
128
)
;
    }
    fixedWalls
    {
        Cmu             0.09;
        kappa           0.41;
        E               9.8;
        beta1           0.075;
        blended         false;
        type            omegaWallFunction;
        value           nonuniform List<scalar> 
60
(
128
128
128
128
128
128
128
128
128
128
128
128
128
128
128
128
128
128
128
128
128
128
128
128
128
128
128
128
128
128
128
128
128
128
128
128
128
128
128
128
128
128
128
128
128
128
128
128
128
128
128
128
128
128
128
128
128
128
128
128
)
;
    }
    frontAndBack
    {
        type            empty;
    }
}


// ************************************************************************* //
