/*--------------------------------*- C++ -*----------------------------------*\
| =========                 |                                                 |
| \\      /  F ield         | OpenFOAM: The Open Source CFD Toolbox           |
|  \\    /   O peration     | Version:  5.0                                   |
|   \\  /    A nd           | Web:      www.OpenFOAM.org                      |
|    \\/     M anipulation  |                                                 |
\*---------------------------------------------------------------------------*/
FoamFile
{
    version     2.0;
    format      ascii;
    class       volScalarField;
    location    "3.5";
    object      p;
}
// * * * * * * * * * * * * * * * * * * * * * * * * * * * * * * * * * * * * * //

dimensions      [0 2 -2 0 0 0 0];

internalField   nonuniform List<scalar> 
400
(
2.80817e-08
-1.26118e-05
-4.45232e-05
-0.000104056
-0.000142179
-0.000138741
-0.000700915
-0.00169543
-0.00263883
-0.00336375
-0.00378811
-0.00386203
-0.00354758
-0.0028084
-0.00156858
0.000225485
0.00252643
0.00504491
0.00699377
0.00761216
2.06942e-05
1.82237e-05
-9.63778e-08
-4.89792e-05
-0.000275384
-0.000753071
-0.0015291
-0.00246315
-0.00328789
-0.00393353
-0.00426651
-0.0043239
-0.00404509
-0.00342142
-0.00236924
-0.000829725
0.00120611
0.00358783
0.00576683
0.00686741
3.70033e-05
2.86635e-05
-3.88578e-05
-0.000322439
-0.000887399
-0.00170093
-0.00265771
-0.00358773
-0.00438244
-0.00490186
-0.00513589
-0.00510378
-0.00480503
-0.00424508
-0.00341518
-0.00225432
-0.000691413
0.00128501
0.00349658
0.00489726
2.63871e-05
-1.38466e-05
-0.000276427
-0.00086557
-0.00178581
-0.00284533
-0.00387979
-0.00472618
-0.00532498
-0.00566697
-0.00577799
-0.0056737
-0.00538977
-0.00492652
-0.00428173
-0.0034395
-0.00233292
-0.000855076
0.0010214
0.00239476
-0.000116603
-0.000228479
-0.000708786
-0.00160965
-0.0027709
-0.00392086
-0.00488889
-0.00561791
-0.00609638
-0.00632738
-0.00634704
-0.00618044
-0.00588843
-0.00548488
-0.00497216
-0.00434928
-0.003575
-0.0025443
-0.0012249
4.51383e-05
-0.000440969
-0.000639379
-0.00130451
-0.00242034
-0.00367116
-0.00481713
-0.00571879
-0.00638917
-0.00680668
-0.00696135
-0.00688893
-0.00664945
-0.00633209
-0.00595786
-0.00552946
-0.00504933
-0.00449728
-0.00379576
-0.0029438
-0.00189008
-0.000952048
-0.00120513
-0.00198465
-0.00319543
-0.00446272
-0.00558608
-0.00646988
-0.00715111
-0.00756642
-0.00768029
-0.00752233
-0.00717271
-0.00677335
-0.00637826
-0.00598424
-0.00558545
-0.00517268
-0.0046854
-0.004181
-0.00333831
-0.00156248
-0.00182209
-0.00265789
-0.00387337
-0.00515344
-0.00628565
-0.0072018
-0.00795223
-0.00842505
-0.00853161
-0.00829712
-0.00779938
-0.00724779
-0.00676751
-0.00635777
-0.00599133
-0.00566066
-0.00528616
-0.00501742
-0.00433575
-0.00212199
-0.00236657
-0.00322851
-0.00441718
-0.00572251
-0.00689725
-0.00786918
-0.0086993
-0.00924992
-0.00937809
-0.00908694
-0.00843484
-0.00769482
-0.00708517
-0.00662989
-0.00626342
-0.0059799
-0.00563565
-0.00553878
-0.00494337
-0.00257105
-0.00278123
-0.00361822
-0.0047677
-0.00609677
-0.0073125
-0.00832591
-0.00919677
-0.00979073
-0.00993614
-0.00961981
-0.00887529
-0.00796537
-0.00724603
-0.00675117
-0.00638189
-0.00615311
-0.00576113
-0.00580929
-0.00523473
-0.00284928
-0.00305577
-0.00379435
-0.00487969
-0.00618163
-0.00741704
-0.00845193
-0.00932434
-0.00992516
-0.0100766
-0.00975809
-0.00897902
-0.00797446
-0.00719533
-0.00668578
-0.00632683
-0.00617169
-0.00565326
-0.00589896
-0.00525112
-0.00293451
-0.00313464
-0.00377513
-0.00473257
-0.00591899
-0.00715088
-0.00819409
-0.0090511
-0.0096267
-0.00977922
-0.00946817
-0.00869813
-0.00771315
-0.00692828
-0.00643096
-0.00611367
-0.00598729
-0.00537559
-0.00585549
-0.00500398
-0.00291431
-0.00306659
-0.00355762
-0.00435611
-0.00537885
-0.0065297
-0.00755901
-0.00839032
-0.00893704
-0.00908744
-0.00879712
-0.00808485
-0.00719207
-0.00647606
-0.00603004
-0.00576365
-0.00565066
-0.00495534
-0.00570007
-0.00447569
-0.00284687
-0.00293884
-0.00320623
-0.00379499
-0.00461841
-0.00560647
-0.00656439
-0.00735681
-0.00787589
-0.00803824
-0.00781368
-0.00723338
-0.00651415
-0.00592995
-0.00556291
-0.00533841
-0.00521779
-0.00446194
-0.00539121
-0.00366032
-0.00276731
-0.00279105
-0.00284525
-0.00317262
-0.00373772
-0.00450549
-0.00533304
-0.00606626
-0.00658381
-0.00680867
-0.00671709
-0.00634003
-0.00583932
-0.00540887
-0.00511806
-0.00490822
-0.00474764
-0.00395703
-0.00486864
-0.00256979
-0.00268048
-0.00261272
-0.00250902
-0.00259555
-0.00291649
-0.00347097
-0.00416964
-0.00486045
-0.00541858
-0.00574249
-0.00578679
-0.00560362
-0.00529867
-0.00499697
-0.00475201
-0.00451935
-0.00427827
-0.00345501
-0.00407717
-0.00118974
-0.00259462
-0.00241713
-0.00219204
-0.00212082
-0.00228284
-0.0026952
-0.00329885
-0.00395993
-0.00454997
-0.00494115
-0.00511733
-0.00509921
-0.00494042
-0.00471554
-0.00447303
-0.00417411
-0.00380088
-0.0028831
-0.00288789
0.000767054
-0.00251451
-0.00216693
-0.0018638
-0.00169687
-0.00178985
-0.00214796
-0.00272789
-0.00340217
-0.00402709
-0.00449042
-0.00475639
-0.00481477
-0.00472511
-0.00452958
-0.00425839
-0.00384932
-0.00327287
-0.00200159
-0.000732239
0.00473567
-0.00259326
-0.00199915
-0.00160736
-0.00136355
-0.00145358
-0.00181937
-0.00240818
-0.00309411
-0.00375004
-0.00424894
-0.00456008
-0.00466188
-0.00460695
-0.00441734
-0.00413686
-0.00363816
-0.00272336
-0.000296612
0.00432314
0.015155
-0.0037886
-0.00137188
-0.000936451
-0.000888337
-0.00103536
-0.00140661
-0.00197507
-0.00265811
-0.00332339
-0.00387671
-0.00423034
-0.00438866
-0.00434778
-0.00415245
-0.00374467
-0.00304505
-0.00129118
0.00378521
0.0153203
0.0344641
)
;

boundaryField
{
    movingWall
    {
        type            zeroGradient;
    }
    fixedWalls
    {
        type            zeroGradient;
    }
    frontAndBack
    {
        type            empty;
    }
}


// ************************************************************************* //
