/*--------------------------------*- C++ -*----------------------------------*\
| =========                 |                                                 |
| \\      /  F ield         | OpenFOAM: The Open Source CFD Toolbox           |
|  \\    /   O peration     | Version:  5.0                                   |
|   \\  /    A nd           | Web:      www.OpenFOAM.org                      |
|    \\/     M anipulation  |                                                 |
\*---------------------------------------------------------------------------*/
FoamFile
{
    version     2.0;
    format      ascii;
    class       surfaceScalarField;
    location    "3.5";
    object      phi;
}
// * * * * * * * * * * * * * * * * * * * * * * * * * * * * * * * * * * * * * //

dimensions      [0 3 -1 0 0 0 0];

internalField   nonuniform List<scalar> 
760
(
4.24065e-08
-4.24092e-08
6.82275e-08
-2.58212e-08
1.22298e-08
5.59976e-08
-2.67846e-07
2.80075e-07
-1.07377e-06
8.05926e-07
-2.4142e-06
1.34042e-06
-3.70783e-06
1.29363e-06
-4.68781e-06
9.79976e-07
-5.4615e-06
7.73693e-07
-5.96458e-06
5.03077e-07
-6.31064e-06
3.46068e-07
-6.47936e-06
1.68721e-07
-6.48836e-06
8.99887e-09
-6.33921e-06
-1.49158e-07
-6.00612e-06
-3.33088e-07
-5.40311e-06
-6.03012e-07
-4.44013e-06
-9.62979e-07
-3.01594e-06
-1.42418e-06
-1.22046e-06
-1.79548e-06
-1.22046e-06
-5.30633e-08
1.0654e-08
-2.45174e-07
1.66289e-07
-8.00068e-07
6.10892e-07
-1.97595e-06
1.45596e-06
-3.44379e-06
2.27376e-06
-4.50168e-06
2.39831e-06
-5.16135e-06
1.95331e-06
-5.77903e-06
1.59765e-06
-6.191e-06
1.18567e-06
-6.51136e-06
8.23433e-07
-6.65273e-06
4.87436e-07
-6.6651e-06
1.81097e-07
-6.55986e-06
-9.62471e-08
-6.34514e-06
-3.63871e-07
-5.99391e-06
-6.84326e-07
-5.47067e-06
-1.12625e-06
-4.67176e-06
-1.76188e-06
-3.4748e-06
-2.62114e-06
-1.80303e-06
-3.46726e-06
-3.02349e-06
-2.10131e-07
2.20785e-07
-7.45109e-07
7.01267e-07
-1.82793e-06
1.69371e-06
-3.14198e-06
2.77001e-06
-4.0641e-06
3.19589e-06
-4.61932e-06
2.95353e-06
-5.02313e-06
2.35712e-06
-5.26487e-06
1.83938e-06
-5.35136e-06
1.27216e-06
-5.31509e-06
7.87166e-07
-5.23015e-06
4.02491e-07
-5.11451e-06
6.54547e-08
-4.97925e-06
-2.31505e-07
-4.78511e-06
-5.58013e-07
-4.53871e-06
-9.30721e-07
-4.20996e-06
-1.455e-06
-3.75096e-06
-2.22088e-06
-3.00424e-06
-3.36786e-06
-1.78384e-06
-4.68766e-06
-4.80733e-06
-4.45374e-07
6.6616e-07
-1.2793e-06
1.53519e-06
-2.43302e-06
2.84744e-06
-3.32357e-06
3.66056e-06
-3.86525e-06
3.73756e-06
-4.11446e-06
3.20273e-06
-4.21407e-06
2.45673e-06
-4.21262e-06
1.83794e-06
-4.15537e-06
1.21491e-06
-4.08237e-06
7.1417e-07
-3.95893e-06
2.79052e-07
-3.80143e-06
-9.20411e-08
-3.62425e-06
-4.08685e-07
-3.42906e-06
-7.53211e-07
-3.20648e-06
-1.1533e-06
-2.95963e-06
-1.70185e-06
-2.66321e-06
-2.5173e-06
-2.25e-06
-3.78108e-06
-1.423e-06
-5.51465e-06
-6.23034e-06
-6.01524e-07
1.26768e-06
-1.50752e-06
2.44118e-06
-2.40457e-06
3.74449e-06
-2.96875e-06
4.22474e-06
-3.27913e-06
4.04794e-06
-3.36437e-06
3.28798e-06
-3.41913e-06
2.51149e-06
-3.44081e-06
1.85962e-06
-3.41404e-06
1.18813e-06
-3.321e-06
6.21129e-07
-3.15824e-06
1.16289e-07
-2.94694e-06
-3.03342e-07
-2.72661e-06
-6.29006e-07
-2.51011e-06
-9.69718e-07
-2.29098e-06
-1.37242e-06
-2.07653e-06
-1.91631e-06
-1.88187e-06
-2.71196e-06
-1.67653e-06
-3.98642e-06
-1.11458e-06
-6.07659e-06
-7.34492e-06
-6.16101e-07
1.88378e-06
-1.41398e-06
3.23906e-06
-2.03491e-06
4.36542e-06
-2.42593e-06
4.61577e-06
-2.63519e-06
4.2572e-06
-2.73741e-06
3.3902e-06
-2.85514e-06
2.62922e-06
-2.9454e-06
1.94987e-06
-2.96763e-06
1.21037e-06
-2.87039e-06
5.23882e-07
-2.65125e-06
-1.02844e-07
-2.37102e-06
-5.83577e-07
-2.09611e-06
-9.03912e-07
-1.85454e-06
-1.21129e-06
-1.63902e-06
-1.58794e-06
-1.44435e-06
-2.11097e-06
-1.27313e-06
-2.88318e-06
-1.10561e-06
-4.15395e-06
-8.53385e-07
-6.32881e-06
-8.19831e-06
-5.11102e-07
2.39489e-06
-1.11052e-06
3.83847e-06
-1.55237e-06
4.80728e-06
-1.86772e-06
4.93112e-06
-2.06575e-06
4.45523e-06
-2.24198e-06
3.56643e-06
-2.4447e-06
2.83193e-06
-2.6186e-06
2.12378e-06
-2.70096e-06
1.29273e-06
-2.61587e-06
4.3879e-07
-2.36749e-06
-3.51222e-07
-2.01377e-06
-9.37297e-07
-1.66093e-06
-1.25675e-06
-1.38283e-06
-1.48939e-06
-1.17205e-06
-1.79872e-06
-1.00962e-06
-2.2734e-06
-8.90638e-07
-3.00216e-06
-7.88018e-07
-4.25657e-06
-6.4532e-07
-6.47151e-06
-8.84363e-06
-3.42796e-07
2.73768e-06
-7.40549e-07
4.23623e-06
-1.0444e-06
5.11113e-06
-1.29458e-06
5.1813e-06
-1.51077e-06
4.67141e-06
-1.75231e-06
3.80798e-06
-1.99784e-06
3.07746e-06
-2.20479e-06
2.33072e-06
-2.32059e-06
1.40853e-06
-2.28311e-06
4.01313e-07
-2.08106e-06
-5.53269e-07
-1.72566e-06
-1.29271e-06
-1.32311e-06
-1.6593e-06
-1.00951e-06
-1.80299e-06
-8.05248e-07
-2.00298e-06
-6.73255e-07
-2.4054e-06
-5.93722e-07
-3.08169e-06
-5.34426e-07
-4.31587e-06
-4.98666e-07
-6.50727e-06
-9.34229e-06
-1.57913e-07
2.8956e-06
-3.47932e-07
4.42625e-06
-5.39933e-07
5.30313e-06
-7.14805e-07
5.35617e-06
-9.02253e-07
4.85886e-06
-1.13078e-06
4.0365e-06
-1.34171e-06
3.28839e-06
-1.50447e-06
2.49349e-06
-1.60283e-06
1.50689e-06
-1.61758e-06
4.16061e-07
-1.51925e-06
-6.51603e-07
-1.26686e-06
-1.54509e-06
-9.28454e-07
-1.99771e-06
-6.44405e-07
-2.08704e-06
-4.79653e-07
-2.16773e-06
-4.00545e-07
-2.48451e-06
-3.84586e-07
-3.09765e-06
-3.85513e-07
-4.31494e-06
-3.88544e-07
-6.50424e-06
-9.73084e-06
5.83002e-08
2.8373e-06
3.98952e-08
4.44465e-06
-1.84498e-08
5.36148e-06
-1.05955e-07
5.44368e-06
-2.41018e-07
4.99392e-06
-3.87483e-07
4.18296e-06
-5.12378e-07
3.41329e-06
-6.03919e-07
2.58503e-06
-6.63434e-07
1.56641e-06
-6.93639e-07
4.46266e-07
-6.69995e-07
-6.75247e-07
-5.57029e-07
-1.65806e-06
-3.81229e-07
-2.17351e-06
-2.27924e-07
-2.24034e-06
-1.49321e-07
-2.24634e-06
-1.47955e-07
-2.48587e-06
-1.94754e-07
-3.05085e-06
-2.45243e-07
-4.26445e-06
-3.12487e-07
-6.437e-06
-1.00433e-05
2.04218e-07
2.63308e-06
4.1897e-07
4.2299e-06
5.23076e-07
5.25737e-06
5.80923e-07
5.38583e-06
5.36915e-07
5.03793e-06
4.37075e-07
4.2828e-06
3.82988e-07
3.46737e-06
3.58626e-07
2.60939e-06
3.38179e-07
1.58686e-06
3.09142e-07
4.75304e-07
2.87003e-07
-6.53108e-07
2.73076e-07
-1.64413e-06
2.68419e-07
-2.16885e-06
2.49734e-07
-2.22166e-06
1.91875e-07
-2.18848e-06
9.18182e-08
-2.38581e-06
-2.51416e-09
-2.95652e-06
-1.48852e-07
-4.11811e-06
-2.51978e-07
-6.33387e-06
-1.02953e-05
3.40225e-07
2.29285e-06
7.00368e-07
3.86976e-06
9.82366e-07
4.97537e-06
1.17865e-06
5.18955e-06
1.27197e-06
4.94461e-06
1.26516e-06
4.2896e-06
1.27356e-06
3.45898e-06
1.30557e-06
2.57738e-06
1.31765e-06
1.57478e-06
1.28952e-06
5.03428e-07
1.21694e-06
-5.80524e-07
1.09676e-06
-1.52395e-06
9.34879e-07
-2.00697e-06
7.45043e-07
-2.03182e-06
5.39874e-07
-1.98331e-06
3.37519e-07
-2.18346e-06
1.38372e-07
-2.75737e-06
-6.75693e-08
-3.91217e-06
-2.21707e-07
-6.17973e-06
-1.0517e-05
4.26809e-07
1.86604e-06
8.86286e-07
3.41028e-06
1.37874e-06
4.48292e-06
1.71965e-06
4.84865e-06
1.96216e-06
4.7021e-06
2.0749e-06
4.17687e-06
2.15129e-06
3.3826e-06
2.22341e-06
2.50525e-06
2.25978e-06
1.53841e-06
2.23114e-06
5.32063e-07
2.10987e-06
-4.5925e-07
1.87707e-06
-1.29115e-06
1.55032e-06
-1.68023e-06
1.19603e-06
-1.67752e-06
8.65879e-07
-1.65316e-06
5.60644e-07
-1.87822e-06
2.75969e-07
-2.4727e-06
-7.77515e-09
-3.62843e-06
-1.72926e-07
-6.01458e-06
-1.06899e-05
4.18269e-07
1.44777e-06
8.91764e-07
2.93679e-06
1.54566e-06
3.82902e-06
2.08152e-06
4.31279e-06
2.4951e-06
4.28852e-06
2.77354e-06
3.89843e-06
2.95608e-06
3.20006e-06
3.07179e-06
2.38954e-06
3.12684e-06
1.48336e-06
3.07296e-06
5.85949e-07
2.86712e-06
-2.53419e-07
2.50526e-06
-9.29282e-07
2.03489e-06
-1.20987e-06
1.56434e-06
-1.20697e-06
1.15009e-06
-1.23892e-06
7.71518e-07
-1.49965e-06
4.15962e-07
-2.11714e-06
6.9821e-08
-3.28229e-06
-9.1643e-08
-5.85312e-06
-1.07816e-05
3.5022e-07
1.09755e-06
7.93193e-07
2.49381e-06
1.45253e-06
3.16968e-06
2.13225e-06
3.63307e-06
2.72444e-06
3.69633e-06
3.18144e-06
3.44143e-06
3.48592e-06
2.89557e-06
3.66576e-06
2.2097e-06
3.71565e-06
1.43348e-06
3.60207e-06
6.99525e-07
3.32801e-06
2.06453e-08
2.88111e-06
-4.82388e-07
2.34247e-06
-6.71227e-07
1.83946e-06
-7.03954e-07
1.39805e-06
-7.97512e-07
9.84014e-07
-1.08561e-06
5.8015e-07
-1.71328e-06
2.02037e-07
-2.90417e-06
5.65495e-08
-5.70763e-06
-1.0725e-05
1.92557e-07
9.04998e-07
5.45046e-07
2.14132e-06
1.10207e-06
2.61265e-06
1.79754e-06
2.9376e-06
2.49389e-06
2.99998e-06
3.09089e-06
2.84442e-06
3.52636e-06
2.46011e-06
3.79036e-06
1.9457e-06
3.85298e-06
1.37085e-06
3.75509e-06
7.97417e-07
3.47191e-06
3.03831e-07
3.02337e-06
-3.38563e-08
2.5237e-06
-1.71552e-07
2.06972e-06
-2.49973e-07
1.65249e-06
-3.80285e-07
1.24058e-06
-6.73694e-07
8.16706e-07
-1.28941e-06
4.24112e-07
-2.51158e-06
2.29041e-07
-5.51256e-06
-1.0496e-05
8.48732e-09
8.9651e-07
3.29825e-07
1.81998e-06
7.98805e-07
2.14368e-06
1.43299e-06
2.30341e-06
2.11534e-06
2.31763e-06
2.74739e-06
2.21237e-06
3.2406e-06
1.96691e-06
3.57417e-06
1.61213e-06
3.70642e-06
1.2386e-06
3.64917e-06
8.54667e-07
3.41427e-06
5.38734e-07
3.06793e-06
3.12485e-07
2.70128e-06
1.95101e-07
2.35465e-06
9.66533e-08
2.00447e-06
-3.01036e-08
1.63138e-06
-3.006e-07
1.21102e-06
-8.69056e-07
8.14871e-07
-2.11543e-06
5.47619e-07
-5.2453e-06
-9.94837e-06
-3.75965e-07
1.27248e-06
-1.26366e-07
1.57039e-06
3.34798e-07
1.68251e-06
9.53224e-07
1.68499e-06
1.60972e-06
1.66114e-06
2.25205e-06
1.57004e-06
2.80296e-06
1.416e-06
3.21984e-06
1.19525e-06
3.47901e-06
9.79425e-07
3.56794e-06
7.65743e-07
3.50351e-06
6.03163e-07
3.34682e-06
4.69173e-07
3.14387e-06
3.98056e-07
2.93527e-06
3.05253e-07
2.68246e-06
2.22701e-07
2.39603e-06
-1.41652e-08
1.99791e-06
-4.7094e-07
1.59758e-06
-1.7151e-06
1.10546e-06
-4.75318e-06
-8.84291e-06
-7.72402e-07
2.04488e-06
-3.71062e-07
1.16905e-06
2.93876e-07
1.01757e-06
1.02144e-06
9.57417e-07
1.74882e-06
9.3377e-07
2.45399e-06
8.64859e-07
3.06339e-06
8.06606e-07
3.55384e-06
7.04789e-07
3.89811e-06
6.35164e-07
4.14173e-06
5.2212e-07
4.26934e-06
4.75556e-07
4.35566e-06
3.8285e-07
4.37525e-06
3.78461e-07
4.39491e-06
2.85597e-07
4.34979e-06
2.67819e-07
4.23748e-06
9.81514e-08
3.98883e-06
-2.22298e-07
3.51915e-06
-1.24542e-06
2.32817e-06
-3.5622e-06
-6.51475e-06
2.04488e-06
3.21392e-06
4.2315e-06
5.18891e-06
6.12268e-06
6.98754e-06
7.79415e-06
8.49894e-06
9.1341e-06
9.65622e-06
1.01318e-05
1.05146e-05
1.08931e-05
1.11787e-05
1.14465e-05
1.15447e-05
1.13224e-05
1.00769e-05
6.51475e-06
)
;

boundaryField
{
    movingWall
    {
        type            calculated;
        value           uniform 0;
    }
    fixedWalls
    {
        type            calculated;
        value           uniform 0;
    }
    frontAndBack
    {
        type            empty;
        value           nonuniform 0();
    }
}


// ************************************************************************* //
