/*--------------------------------*- C++ -*----------------------------------*\
| =========                 |                                                 |
| \\      /  F ield         | OpenFOAM: The Open Source CFD Toolbox           |
|  \\    /   O peration     | Version:  5.0                                   |
|   \\  /    A nd           | Web:      www.OpenFOAM.org                      |
|    \\/     M anipulation  |                                                 |
\*---------------------------------------------------------------------------*/
FoamFile
{
    version     2.0;
    format      ascii;
    class       volVectorField;
    location    "3.5";
    object      U;
}
// * * * * * * * * * * * * * * * * * * * * * * * * * * * * * * * * * * * * * //

dimensions      [0 1 -1 0 0 0 0];

internalField   nonuniform List<vector> 
400
(
(0.00043215 -0.000623836 0)
(0.00133384 -0.000847234 0)
(0.00135144 -0.000969885 0)
(-0.000953566 -0.000616511 0)
(-0.0102952 0.00173093 0)
(-0.0292614 0.0110927 0)
(-0.067372 0.0156073 0)
(-0.0863689 0.00911029 0)
(-0.104547 0.0103942 0)
(-0.115967 0.00565128 0)
(-0.123915 0.00583827 0)
(-0.128807 0.00329263 0)
(-0.130812 0.00221533 0)
(-0.130231 -0.000301072 0)
(-0.124499 -0.00227213 0)
(-0.114569 -0.00581166 0)
(-0.0972323 -0.00953225 0)
(-0.0731228 -0.0137843 0)
(-0.0414285 -0.0154609 0)
(-0.0112811 -0.00426767 0)
(-0.00012614 -0.00093846 0)
(-0.00191904 -2.96228e-05 0)
(-0.00781411 0.00357321 0)
(-0.0228274 0.0131934 0)
(-0.0550836 0.032722 0)
(-0.0811222 0.0401726 0)
(-0.0998367 0.0326618 0)
(-0.110722 0.0275186 0)
(-0.121969 0.0189624 0)
(-0.127897 0.0132543 0)
(-0.132427 0.00737444 0)
(-0.134047 0.00286968 0)
(-0.133389 -0.00204763 0)
(-0.130512 -0.00672551 0)
(-0.124699 -0.0128987 0)
(-0.115436 -0.0210344 0)
(-0.10056 -0.0325115 0)
(-0.0802131 -0.0470127 0)
(-0.0516565 -0.0585569 0)
(-0.0199152 -0.0413923 0)
(-0.00102548 0.00142823 0)
(-0.00701942 0.00690174 0)
(-0.0214476 0.0218096 0)
(-0.0502489 0.0441911 0)
(-0.0749937 0.0557989 0)
(-0.0895026 0.0536569 0)
(-0.0980389 0.0430756 0)
(-0.104814 0.0339182 0)
(-0.107613 0.0252325 0)
(-0.106673 0.0168874 0)
(-0.105636 0.0098538 0)
(-0.103156 0.00305686 0)
(-0.101195 -0.00268883 0)
(-0.0981367 -0.00931554 0)
(-0.0942601 -0.0166726 0)
(-0.0886821 -0.0273899 0)
(-0.0802527 -0.0429137 0)
(-0.0669717 -0.0645288 0)
(-0.0458733 -0.0871656 0)
(-0.0212422 -0.085419 0)
(-0.00259771 0.00800098 0)
(-0.0140833 0.0222037 0)
(-0.0355831 0.0464443 0)
(-0.0608588 0.065572 0)
(-0.0744783 0.069139 0)
(-0.0826802 0.0611653 0)
(-0.0845256 0.048255 0)
(-0.0854745 0.0374469 0)
(-0.0832359 0.0252938 0)
(-0.0826146 0.0154748 0)
(-0.0802603 0.00715633 0)
(-0.0774552 -4.06392e-05 0)
(-0.0744288 -0.00603734 0)
(-0.0706356 -0.0127249 0)
(-0.066735 -0.0205342 0)
(-0.0623904 -0.031343 0)
(-0.0574723 -0.0477253 0)
(-0.0496121 -0.0736564 0)
(-0.0350435 -0.105156 0)
(-0.0176088 -0.113462 0)
(-0.00403398 0.0193896 0)
(-0.0183907 0.0401554 0)
(-0.0408427 0.0671201 0)
(-0.0565604 0.0790216 0)
(-0.0653735 0.0778397 0)
(-0.0683073 0.0650391 0)
(-0.0678494 0.0501932 0)
(-0.0694599 0.0374868 0)
(-0.0683847 0.0244205 0)
(-0.0676158 0.0138257 0)
(-0.0646602 0.00437753 0)
(-0.0608296 -0.00345665 0)
(-0.0567548 -0.010003 0)
(-0.0523385 -0.0170119 0)
(-0.0481058 -0.0251351 0)
(-0.043976 -0.0360016 0)
(-0.04018 -0.0518957 0)
(-0.0356333 -0.0773586 0)
(-0.0287775 -0.118875 0)
(-0.0110919 -0.139281 0)
(-0.00406138 0.0312704 0)
(-0.0188686 0.0569841 0)
(-0.037355 0.0816314 0)
(-0.0466192 0.0884632 0)
(-0.0532098 0.0831778 0)
(-0.0543278 0.0668348 0)
(-0.0555772 0.0515173 0)
(-0.0590769 0.0380833 0)
(-0.0593592 0.024109 0)
(-0.0587254 0.0118477 0)
(-0.054992 0.000714397 0)
(-0.0498362 -0.00810622 0)
(-0.0445263 -0.014715 0)
(-0.0393406 -0.0214854 0)
(-0.0348742 -0.029481 0)
(-0.030901 -0.040203 0)
(-0.0275678 -0.0557694 0)
(-0.0234399 -0.0809575 0)
(-0.0214148 -0.123465 0)
(-0.00847322 -0.155958 0)
(-0.0032153 0.0427945 0)
(-0.0156516 0.070715 0)
(-0.0293114 0.0915135 0)
(-0.0354391 0.0950735 0)
(-0.0415452 0.0866098 0)
(-0.042754 0.0690214 0)
(-0.0465811 0.0539531 0)
(-0.0520494 0.0398931 0)
(-0.0538497 0.0242396 0)
(-0.0536068 0.00917706 0)
(-0.0496029 -0.00468131 0)
(-0.0431731 -0.0151117 0)
(-0.0363974 -0.0213463 0)
(-0.0301151 -0.0269093 0)
(-0.0253571 -0.0339092 0)
(-0.021661 -0.0439586 0)
(-0.0192168 -0.0589715 0)
(-0.0159214 -0.0842322 0)
(-0.0173904 -0.128474 0)
(-0.00481743 -0.171188 0)
(-0.00139216 0.0510022 0)
(-0.0109072 0.0808538 0)
(-0.0200043 0.0992578 0)
(-0.0239054 0.101088 0)
(-0.0298115 0.0905114 0)
(-0.0320019 0.0726254 0)
(-0.0373927 0.0580439 0)
(-0.0437183 0.0433697 0)
(-0.0461426 0.025775 0)
(-0.0464284 0.00734021 0)
(-0.043461 -0.0103004 0)
(-0.0373381 -0.0236155 0)
(-0.0300453 -0.0299306 0)
(-0.0228874 -0.0332993 0)
(-0.0178791 -0.0383218 0)
(-0.0144721 -0.0470473 0)
(-0.0130031 -0.0609427 0)
(-0.00986396 -0.0855587 0)
(-0.0134861 -0.129186 0)
(-0.0034155 -0.181067 0)
(-0.000412294 0.0571474 0)
(-0.00484505 0.0870604 0)
(-0.010342 0.103908 0)
(-0.0126361 0.10485 0)
(-0.0175483 0.0948395 0)
(-0.0197032 0.0779578 0)
(-0.024771 0.0630649 0)
(-0.0300566 0.0476671 0)
(-0.0318593 0.0284118 0)
(-0.0324457 0.00734783 0)
(-0.0312395 -0.0134273 0)
(-0.0270732 -0.0300081 0)
(-0.0216073 -0.0379879 0)
(-0.0154042 -0.0397278 0)
(-0.0109911 -0.0422512 0)
(-0.0083047 -0.0493215 0)
(-0.00843205 -0.0621188 0)
(-0.00575405 -0.0867239 0)
(-0.0117588 -0.13026 0)
(-0.0010779 -0.19077 0)
(0.00154221 0.057651 0)
(0.00146616 0.0892561 0)
(-0.000367745 0.107494 0)
(-0.000571325 0.108615 0)
(-0.00437712 0.0984221 0)
(-0.00587992 0.0821213 0)
(-0.00911435 0.0670787 0)
(-0.0122339 0.0507803 0)
(-0.0131262 0.0306766 0)
(-0.0136413 0.00848349 0)
(-0.0136249 -0.0136662 0)
(-0.0115689 -0.0330989 0)
(-0.00900357 -0.0426056 0)
(-0.0059842 -0.0441093 0)
(-0.00366682 -0.0447363 0)
(-0.00221861 -0.0501439 0)
(-0.00448099 -0.0618497 0)
(-0.00197742 -0.0858846 0)
(-0.00992679 -0.128933 0)
(1.71829e-05 -0.197143 0)
(0.00223761 0.0557249 0)
(0.00700605 0.0875119 0)
(0.00874192 0.10663 0)
(0.0110926 0.109547 0)
(0.0105854 0.101445 0)
(0.00965925 0.0851866 0)
(0.00790398 0.0692949 0)
(0.00661838 0.0524094 0)
(0.00661794 0.032029 0)
(0.00652366 0.00943949 0)
(0.00620234 -0.0132848 0)
(0.00650094 -0.0330666 0)
(0.00601956 -0.0439234 0)
(0.00509163 -0.0451663 0)
(0.00419344 -0.0449172 0)
(0.00376351 -0.0491157 0)
(-0.00102412 -0.0604431 0)
(0.00145837 -0.0840428 0)
(-0.00951632 -0.127701 0)
(0.0021127 -0.203948 0)
(0.00337846 0.0505854 0)
(0.0114186 0.0829074 0)
(0.0162177 0.104464 0)
(0.0219765 0.10687 0)
(0.0237497 0.101338 0)
(0.025035 0.0871063 0)
(0.024848 0.0700569 0)
(0.0249584 0.052538 0)
(0.0257586 0.0321382 0)
(0.0262975 0.0100392 0)
(0.0259386 -0.0121569 0)
(0.0250466 -0.0315259 0)
(0.0215948 -0.0418491 0)
(0.0165563 -0.0428213 0)
(0.0122603 -0.0420142 0)
(0.00940693 -0.0460487 0)
(0.00232449 -0.0574052 0)
(0.00514852 -0.0804204 0)
(-0.00960477 -0.125178 0)
(0.00374591 -0.208244 0)
(0.00464093 0.0421637 0)
(0.0134591 0.0733677 0)
(0.0227772 0.0965699 0)
(0.0312142 0.102255 0)
(0.0362448 0.0979187 0)
(0.0397196 0.0863079 0)
(0.0415409 0.069762 0)
(0.0430618 0.051733 0)
(0.0444459 0.0318058 0)
(0.045401 0.0107056 0)
(0.04482 -0.0101459 0)
(0.0423877 -0.0278133 0)
(0.0357606 -0.0367393 0)
(0.0270775 -0.0371543 0)
(0.0197875 -0.0365011 0)
(0.0146983 -0.040817 0)
(0.00546636 -0.0525041 0)
(0.00859836 -0.0754812 0)
(-0.0105469 -0.122537 0)
(0.00687323 -0.212755 0)
(0.00473092 0.0332274 0)
(0.0124161 0.0641493 0)
(0.0247951 0.0845271 0)
(0.0366218 0.0941011 0)
(0.0455714 0.0927318 0)
(0.0519374 0.0835794 0)
(0.0566722 0.0683776 0)
(0.0596932 0.0509969 0)
(0.0618665 0.031873 0)
(0.0628207 0.0119308 0)
(0.0611613 -0.00690228 0)
(0.0563081 -0.0218743 0)
(0.0466425 -0.0287186 0)
(0.0355006 -0.028729 0)
(0.0262537 -0.0288939 0)
(0.0195992 -0.0338294 0)
(0.00871159 -0.046031 0)
(0.0118419 -0.0691317 0)
(-0.0114509 -0.119031 0)
(0.0105827 -0.214909 0)
(0.00315269 0.0248396 0)
(0.0109778 0.0532412 0)
(0.0224389 0.0689279 0)
(0.0361794 0.0796671 0)
(0.0486643 0.0810366 0)
(0.0585646 0.0752595 0)
(0.0663091 0.0628653 0)
(0.0711336 0.0477481 0)
(0.0741084 0.0301161 0)
(0.0740891 0.0132871 0)
(0.0710183 -0.00214698 0)
(0.0643013 -0.0138371 0)
(0.0529834 -0.018576 0)
(0.0413387 -0.0188836 0)
(0.0316489 -0.020265 0)
(0.0242121 -0.0258581 0)
(0.0125169 -0.0384115 0)
(0.0152317 -0.0620627 0)
(-0.0114347 -0.116037 0)
(0.0163898 -0.217051 0)
(0.000912107 0.019447 0)
(0.00714703 0.047002 0)
(0.0159986 0.0578513 0)
(0.0290082 0.0655372 0)
(0.0429748 0.0670219 0)
(0.0556704 0.0630956 0)
(0.0658317 0.053976 0)
(0.0733013 0.041777 0)
(0.0767627 0.0279981 0)
(0.076949 0.0152275 0)
(0.0739105 0.00318706 0)
(0.0664274 -0.00490454 0)
(0.0557591 -0.00803742 0)
(0.0456813 -0.00923052 0)
(0.0367133 -0.0116098 0)
(0.0293722 -0.0175785 0)
(0.0176969 -0.0302057 0)
(0.0198399 -0.0547123 0)
(-0.00901675 -0.11401 0)
(0.0234896 -0.217415 0)
(-0.00297895 0.0169762 0)
(0.00346205 0.0378575 0)
(0.0107664 0.0464129 0)
(0.0220799 0.0510455 0)
(0.0353481 0.0517291 0)
(0.048415 0.0493925 0)
(0.0597429 0.0435385 0)
(0.0679878 0.0355749 0)
(0.0734347 0.0268729 0)
(0.0744325 0.0169127 0)
(0.0715701 0.00877455 0)
(0.0656882 0.00349049 0)
(0.0578872 0.000875002 0)
(0.0505927 -0.00103638 0)
(0.0432003 -0.00378252 0)
(0.0369276 -0.00954441 0)
(0.0258757 -0.0216779 0)
(0.0273217 -0.047415 0)
(-0.00275503 -0.111805 0)
(0.0333831 -0.21717 0)
(-0.0072364 0.0202955 0)
(-0.00621235 0.0366959 0)
(0.0015733 0.0406345 0)
(0.0126061 0.041784 0)
(0.0253607 0.0410013 0)
(0.0382732 0.0383356 0)
(0.0503107 0.0338142 0)
(0.0602268 0.027439 0)
(0.0673991 0.02141 0)
(0.0712109 0.0159445 0)
(0.071486 0.0117639 0)
(0.0691933 0.00851665 0)
(0.0649859 0.00665051 0)
(0.0610247 0.00478231 0)
(0.0557883 0.0026716 0)
(0.0513113 -0.0019933 0)
(0.0415916 -0.0128556 0)
(0.0418468 -0.0401168 0)
(0.0115781 -0.109613 0)
(0.0468449 -0.208043 0)
(-0.0127643 0.0347275 0)
(-0.0151628 0.0226005 0)
(-0.000184428 0.0231605 0)
(0.012843 0.0232144 0)
(0.0272781 0.0230681 0)
(0.041956 0.0219017 0)
(0.054943 0.0202071 0)
(0.0664318 0.0179888 0)
(0.0745658 0.0155678 0)
(0.0810986 0.0128899 0)
(0.0842792 0.0108374 0)
(0.0869985 0.00899486 0)
(0.0872693 0.00816364 0)
(0.0880996 0.00651882 0)
(0.0868145 0.00519949 0)
(0.0859437 0.00107543 0)
(0.07822 -0.00827721 0)
(0.0772552 -0.0342321 0)
(0.0489267 -0.0952081 0)
(0.0715507 -0.164471 0)
(0.0437778 0.0391563 0)
(0.0495001 0.0283788 0)
(0.0711665 0.0217702 0)
(0.0954372 0.0182102 0)
(0.112664 0.0170582 0)
(0.131927 0.0153694 0)
(0.146287 0.0147516 0)
(0.163414 0.0127359 0)
(0.174994 0.012253 0)
(0.188921 0.0100459 0)
(0.19727 0.010057 0)
(0.20764 0.00787249 0)
(0.21342 0.00851758 0)
(0.220601 0.00625139 0)
(0.2247 0.00718138 0)
(0.22891 0.00404562 0)
(0.22673 0.00205601 0)
(0.216145 -0.00480569 0)
(0.179034 -0.0151739 0)
(0.136954 -0.0370686 0)
)
;

boundaryField
{
    movingWall
    {
        type            fixedValue;
        value           uniform (1 0 0);
    }
    fixedWalls
    {
        type            noSlip;
    }
    frontAndBack
    {
        type            empty;
    }
}


// ************************************************************************* //
