/*--------------------------------*- C++ -*----------------------------------*\
  =========                 |
  \\      /  F ield         | OpenFOAM: The Open Source CFD Toolbox
   \\    /   O peration     | Website:  https://openfoam.org
    \\  /    A nd           | Version:  6
     \\/     M anipulation  |
\*---------------------------------------------------------------------------*/
FoamFile
{
    version     2.0;
    format      ascii;
    class       volScalarField;
    location    "0.5";
    object      p;
}
// * * * * * * * * * * * * * * * * * * * * * * * * * * * * * * * * * * * * * //

dimensions      [0 2 -2 0 0 0 0];

internalField   nonuniform List<scalar> 
400
(
-1.74367e-06
-0.00287996
-0.00826746
-0.0144949
-0.0195696
-0.021637
-0.0191151
-0.0108591
0.00361993
0.0238415
0.00285941
-4.27846e-05
-0.00431474
-0.00896681
-0.0126857
-0.0140092
-0.0115866
-0.00438335
0.00809623
0.0255094
0.00834273
0.00414314
-0.000293982
-0.00438282
-0.00742105
-0.00831433
-0.0059739
0.000464956
0.0114453
0.0267093
0.0151065
0.00887522
0.0033298
-0.00107858
-0.00412212
-0.00498144
-0.00278249
0.00317216
0.013248
0.0272259
0.0215617
0.0130331
0.00591436
0.000707367
-0.0027276
-0.00377588
-0.00172435
0.00398257
0.0136329
0.027024
0.0261075
0.015164
0.00620357
-8.3819e-05
-0.004111
-0.00540904
-0.00337572
0.00243296
0.0122355
0.0258323
0.0269435
0.0134615
0.00247635
-0.00503427
-0.00969063
-0.0111242
-0.00880126
-0.00235938
0.00836381
0.0231687
0.0217662
0.00553219
-0.00763047
-0.0163707
-0.0214907
-0.0227049
-0.0195283
-0.011664
0.00100673
0.0182967
0.00729436
-0.0120517
-0.0275404
-0.0373453
-0.042472
-0.0427471
-0.0377613
-0.0273039
-0.0112991
0.010112
-0.0215005
-0.0445427
-0.0624663
-0.0728431
-0.0769921
-0.0749753
-0.0665797
-0.0517718
-0.0305422
-0.00291302
0.0469786
0.0677916
0.0829861
0.0917133
0.0943347
0.0920789
0.0867096
0.0802507
0.0747872
0.0719628
0.0454554
0.063372
0.0764581
0.0840632
0.086579
0.0851107
0.0811571
0.0763168
0.0719861
0.0691524
0.0442126
0.0599632
0.0715329
0.0783692
0.0808101
0.079781
0.0765095
0.0722241
0.0677255
0.0636173
0.0432961
0.0578287
0.0685905
0.0750264
0.0773683
0.0763668
0.0730457
0.0683834
0.0627398
0.0566045
0.0424892
0.056592
0.0671513
0.0735377
0.0758469
0.0746715
0.070895
0.065335
0.058035
0.0495677
0.0416202
0.0562024
0.0673125
0.0741743
0.0767112
0.0753673
0.0709385
0.0641576
0.0548652
0.043876
0.0404443
0.0566791
0.0693752
0.0775262
0.0808301
0.0795737
0.0745002
0.0663183
0.0547501
0.0409858
0.0385373
0.0579618
0.0736903
0.0843846
0.0894282
0.088897
0.0834752
0.0738722
0.0597323
0.0427621
0.0352006
0.0598495
0.0806585
0.0958339
0.104291
0.105754
0.100756
0.0899612
0.072921
0.0520488
0.0294075
0.061958
0.0907378
0.113369
0.128058
0.133887
0.130979
0.11976
0.0995493
0.073725
-0.0707439
-0.0983287
-0.118521
-0.128246
-0.129468
-0.122784
-0.108453
-0.0868151
-0.0579807
-0.0217357
-0.143866
-0.176989
-0.198588
-0.205104
-0.199957
-0.184926
-0.161235
-0.129899
-0.0912126
-0.0445548
-0.243751
-0.283479
-0.304156
-0.302511
-0.285248
-0.256544
-0.219264
-0.175356
-0.125236
-0.067575
-0.379503
-0.426429
-0.440377
-0.421205
-0.382582
-0.332789
-0.276876
-0.217648
-0.155225
-0.0870514
-0.570343
-0.620942
-0.613762
-0.56004
-0.486335
-0.406317
-0.326838
-0.250601
-0.176403
-0.0996526
-0.856872
-0.891532
-0.830115
-0.713555
-0.586786
-0.467316
-0.361234
-0.26869
-0.185352
-0.103613
-1.32
-1.27202
-1.09003
-0.870034
-0.670216
-0.504752
-0.37314
-0.268531
-0.181076
-0.0993624
-2.13993
-1.79918
-1.36962
-0.998973
-0.712751
-0.504083
-0.355891
-0.248428
-0.164456
-0.0889594
-3.775
-2.47515
-1.54651
-1.00357
-0.658775
-0.438632
-0.298861
-0.205471
-0.136
-0.0744245
-6.53311
-3.07666
-1.4245
-0.793362
-0.482264
-0.309193
-0.209922
-0.147373
-0.101349
-0.0589839
0.0204355
0.0639383
0.104265
0.138408
0.163577
0.177746
0.180108
0.170383
0.147211
0.115105
0.00916815
0.0657568
0.120648
0.170426
0.211164
0.239189
0.251961
0.247534
0.222796
0.183234
-0.00219309
0.0678606
0.13877
0.207341
0.268784
0.317494
0.348245
0.355813
0.333046
0.285372
-0.0112186
0.0712033
0.158124
0.247557
0.334716
0.4124
0.472071
0.503159
0.490228
0.435104
-0.0160175
0.076108
0.177269
0.287881
0.404753
0.520615
0.624279
0.698381
0.712903
0.656668
-0.0161852
0.0815372
0.193279
0.322991
0.471273
0.633982
0.800591
0.948628
1.02821
0.996321
-0.0131093
0.085035
0.201894
0.345674
0.523251
0.738642
0.988896
1.2541
1.47048
1.54005
-0.00952446
0.0829335
0.197327
0.34572
0.542985
0.807415
1.15487
1.58759
2.07609
2.47314
-0.00838902
0.0709433
0.172255
0.308567
0.500054
0.780253
1.19616
1.82187
2.84574
4.25325
-0.0104453
0.0507984
0.130743
0.239081
0.393165
0.629034
1.01789
1.75236
3.52708
7.10589
)
;

boundaryField
{
    movingWall
    {
        type            zeroGradient;
    }
    fixedWalls
    {
        type            zeroGradient;
    }
    frontAndBack
    {
        type            empty;
    }
}


// ************************************************************************* //
