# Probe 0 (0.05 0.09 0)
#       Probe             0
#        Time
        0.005       0.59085
         0.01    -0.0782603
        0.015     0.0527677
         0.02    -0.0659447
        0.025    -0.0585482
         0.03    -0.0710594
        0.035     -0.082895
         0.04    -0.0680139
        0.045    -0.0819112
         0.05    -0.0833507
        0.055    -0.0842495
         0.06    -0.0848963
        0.065    -0.0855936
         0.07    -0.0856755
        0.075    -0.0866686
         0.08    -0.0854416
        0.085    -0.0865895
         0.09    -0.0867985
        0.095    -0.0867855
          0.1    -0.0870456
        0.105    -0.0867178
         0.11    -0.0870314
        0.115    -0.0870499
         0.12    -0.0871596
        0.125    -0.0869864
         0.13    -0.0871545
        0.135    -0.0871434
         0.14    -0.0871438
        0.145    -0.0872059
         0.15    -0.0871741
        0.155    -0.0871666
         0.16    -0.0871769
        0.165      -0.08718
         0.17    -0.0871682
        0.175     -0.087213
         0.18    -0.0872026
        0.185    -0.0872009
         0.19    -0.0872009
        0.195    -0.0872022
          0.2    -0.0872029
        0.205    -0.0872044
         0.21    -0.0872058
        0.215    -0.0872064
         0.22     -0.087208
        0.225    -0.0872081
         0.23    -0.0872084
        0.235    -0.0872084
         0.24    -0.0872084
        0.245    -0.0872085
         0.25    -0.0872087
        0.255    -0.0872088
         0.26    -0.0872089
        0.265     -0.087209
         0.27    -0.0872092
        0.275    -0.0872094
         0.28    -0.0872095
        0.285    -0.0872095
         0.29    -0.0872096
        0.295    -0.0872097
          0.3    -0.0872098
        0.305    -0.0872099
         0.31    -0.0872099
        0.315    -0.0872101
         0.32      -0.08721
        0.325    -0.0872102
         0.33    -0.0872102
        0.335    -0.0872103
         0.34    -0.0872103
        0.345    -0.0872105
         0.35    -0.0872104
        0.355    -0.0872106
         0.36    -0.0872106
        0.365    -0.0872108
         0.37    -0.0872107
        0.375    -0.0872109
         0.38    -0.0872108
        0.385     -0.087211
         0.39    -0.0872109
        0.395    -0.0872109
          0.4    -0.0872111
        0.405     -0.087211
         0.41    -0.0872112
        0.415    -0.0872111
         0.42    -0.0872111
        0.425    -0.0872113
         0.43    -0.0872112
        0.435    -0.0872112
         0.44    -0.0872114
        0.445    -0.0872113
         0.45    -0.0872115
        0.455    -0.0872115
         0.46    -0.0872114
        0.465    -0.0872116
         0.47    -0.0872116
        0.475    -0.0872115
         0.48    -0.0872116
        0.485    -0.0872116
         0.49    -0.0872116
        0.495    -0.0872117
          0.5    -0.0872117
