# Probe 0 (0.05 0.09 0)
#       Probe             0
#        Time
        0.005             (0.0343729 0.00338835 0)
         0.01             (0.124971 0.00674671 0)
        0.015             (0.195778 0.00967075 0)
         0.02             (0.242228 0.0120813 0)
        0.025             (0.272724 0.0138772 0)
         0.03             (0.293252 0.0151898 0)
        0.035             (0.307444 0.0161442 0)
         0.04             (0.317474 0.0168354 0)
        0.045             (0.324711 0.0173323 0)
         0.05             (0.33 0.0177005 0)
        0.055             (0.333917 0.0179716 0)
         0.06             (0.336845 0.0181704 0)
        0.065             (0.339055 0.0183172 0)
         0.07             (0.340734 0.018427 0)
        0.075             (0.342017 0.0185091 0)
         0.08             (0.343003 0.0185716 0)
        0.085             (0.343764 0.0186183 0)
         0.09             (0.344355 0.0186543 0)
        0.095             (0.344813 0.0186822 0)
          0.1             (0.345171 0.0187033 0)
        0.105             (0.34545 0.0187199 0)
         0.11             (0.345668 0.0187325 0)
        0.115             (0.345839 0.0187423 0)
         0.12             (0.345973 0.01875 0)
        0.125             (0.346079 0.018756 0)
         0.13             (0.346163 0.0187607 0)
        0.135             (0.346228 0.0187644 0)
         0.14             (0.34628 0.0187673 0)
        0.145             (0.34632 0.0187695 0)
         0.15             (0.346353 0.0187712 0)
        0.155             (0.346379 0.0187726 0)
         0.16             (0.346398 0.0187737 0)
        0.165             (0.346415 0.0187745 0)
         0.17             (0.346428 0.0187752 0)
        0.175             (0.346437 0.0187757 0)
         0.18             (0.346446 0.0187761 0)
        0.185             (0.346452 0.0187765 0)
         0.19             (0.346456 0.0187767 0)
        0.195             (0.346459 0.0187768 0)
          0.2             (0.346463 0.018777 0)
        0.205             (0.346466 0.0187772 0)
         0.21             (0.346468 0.0187773 0)
        0.215             (0.346471 0.0187774 0)
         0.22             (0.346472 0.0187775 0)
        0.225             (0.346473 0.0187775 0)
         0.23             (0.346475 0.0187775 0)
        0.235             (0.346476 0.0187776 0)
         0.24             (0.346477 0.0187776 0)
        0.245             (0.346478 0.0187777 0)
         0.25             (0.346479 0.0187777 0)
        0.255             (0.34648 0.0187777 0)
         0.26             (0.346481 0.0187778 0)
        0.265             (0.346481 0.0187778 0)
         0.27             (0.346482 0.0187778 0)
        0.275             (0.346483 0.0187779 0)
         0.28             (0.346484 0.0187779 0)
        0.285             (0.346484 0.0187779 0)
         0.29             (0.346485 0.018778 0)
        0.295             (0.346486 0.018778 0)
          0.3             (0.346486 0.018778 0)
        0.305             (0.346487 0.018778 0)
         0.31             (0.346488 0.018778 0)
        0.315             (0.346488 0.0187781 0)
         0.32             (0.346489 0.0187781 0)
        0.325             (0.346489 0.0187781 0)
         0.33             (0.346489 0.0187781 0)
        0.335             (0.34649 0.0187781 0)
         0.34             (0.34649 0.0187782 0)
        0.345             (0.346491 0.0187782 0)
         0.35             (0.346491 0.0187782 0)
        0.355             (0.346491 0.0187782 0)
         0.36             (0.346492 0.0187782 0)
        0.365             (0.346492 0.0187782 0)
         0.37             (0.346492 0.0187782 0)
        0.375             (0.346493 0.0187782 0)
         0.38             (0.346493 0.0187783 0)
        0.385             (0.346493 0.0187783 0)
         0.39             (0.346493 0.0187783 0)
        0.395             (0.346493 0.0187783 0)
          0.4             (0.346494 0.0187783 0)
        0.405             (0.346494 0.0187783 0)
         0.41             (0.346494 0.0187783 0)
        0.415             (0.346494 0.0187783 0)
         0.42             (0.346494 0.0187783 0)
        0.425             (0.346495 0.0187783 0)
         0.43             (0.346495 0.0187783 0)
        0.435             (0.346495 0.0187783 0)
         0.44             (0.346495 0.0187783 0)
        0.445             (0.346495 0.0187784 0)
         0.45             (0.346495 0.0187784 0)
        0.455             (0.346495 0.0187784 0)
         0.46             (0.346495 0.0187784 0)
        0.465             (0.346496 0.0187784 0)
         0.47             (0.346496 0.0187784 0)
        0.475             (0.346496 0.0187784 0)
         0.48             (0.346496 0.0187784 0)
        0.485             (0.346496 0.0187784 0)
         0.49             (0.346496 0.0187784 0)
        0.495             (0.346496 0.0187784 0)
          0.5             (0.346496 0.0187784 0)
