/*--------------------------------*- C++ -*----------------------------------*\
| =========                 |                                                 |
| \\      /  F ield         | OpenFOAM: The Open Source CFD Toolbox           |
|  \\    /   O peration     | Version:  5.0                                   |
|   \\  /    A nd           | Web:      www.OpenFOAM.org                      |
|    \\/     M anipulation  |                                                 |
\*---------------------------------------------------------------------------*/
FoamFile
{
    version     2.0;
    format      ascii;
    class       volScalarField;
    location    "9.5";
    object      p;
}
// * * * * * * * * * * * * * * * * * * * * * * * * * * * * * * * * * * * * * //

dimensions      [0 2 -2 0 0 0 0];

internalField   nonuniform List<scalar> 
400
(
8.28418e-08
-0.000107881
-0.000274283
-0.000161752
-0.000913793
-0.00275763
-0.00502967
-0.00712849
-0.00883886
-0.0100261
-0.0106404
-0.0106125
-0.00988562
-0.00825798
-0.00564172
-0.00203932
0.0023697
0.00692404
0.0100979
0.0114064
2.09764e-05
-5.55671e-05
-0.000247945
-0.000901256
-0.00223041
-0.00417945
-0.00622918
-0.00819326
-0.00976643
-0.0108729
-0.0114551
-0.0114761
-0.0108577
-0.0094729
-0.00721827
-0.00408333
-0.000113095
0.00426967
0.00794281
0.0100754
0.000342029
-7.71123e-05
-0.000903895
-0.00230999
-0.00424492
-0.00632536
-0.00835058
-0.0101684
-0.0115062
-0.0123912
-0.0128212
-0.0127788
-0.0121923
-0.0110235
-0.00920344
-0.00671322
-0.00352806
0.000292337
0.00401238
0.00654785
0.000210525
-0.000571802
-0.00211149
-0.00425034
-0.0065822
-0.00874854
-0.0105642
-0.0119277
-0.0128948
-0.0135122
-0.0137868
-0.0137154
-0.0132566
-0.012348
-0.0109268
-0.00899753
-0.00655502
-0.00349851
-0.000240538
0.00215627
-0.000705054
-0.00178087
-0.00387391
-0.00640236
-0.0087571
-0.0106825
-0.0121521
-0.0132154
-0.0139615
-0.0144253
-0.0146246
-0.0145593
-0.0142024
-0.0135081
-0.0124115
-0.0109053
-0.00905195
-0.00669052
-0.00421216
-0.00204513
-0.00240554
-0.003602
-0.00586266
-0.00835126
-0.0104797
-0.0120792
-0.0132514
-0.0141199
-0.0147366
-0.0151174
-0.0152787
-0.0152283
-0.0149573
-0.0144352
-0.0136195
-0.0124453
-0.0110351
-0.0092394
-0.00741908
-0.00560299
-0.00441613
-0.00556773
-0.00768543
-0.00994762
-0.0117772
-0.0130865
-0.0140662
-0.0148067
-0.0153309
-0.0156505
-0.0157842
-0.0157422
-0.0155284
-0.0151246
-0.0145245
-0.0136151
-0.0125474
-0.0111796
-0.00987301
-0.00840058
-0.00625033
-0.00727584
-0.00914687
-0.011151
-0.0127099
-0.0138103
-0.0146717
-0.015324
-0.0157764
-0.0160446
-0.0161526
-0.0161116
-0.0159369
-0.0156112
-0.0151615
-0.0144389
-0.0136395
-0.0125538
-0.0116371
-0.0104849
-0.00759249
-0.00850619
-0.0101631
-0.0119609
-0.0133295
-0.0143038
-0.0150897
-0.0156808
-0.0160799
-0.0163066
-0.0163918
-0.0163463
-0.0161967
-0.0159187
-0.0155735
-0.0149525
-0.0143854
-0.0134111
-0.0128527
-0.0119226
-0.00836165
-0.00918184
-0.0107016
-0.0123851
-0.0136483
-0.0145651
-0.0153145
-0.0158713
-0.0162421
-0.0164446
-0.0165193
-0.0164689
-0.0163302
-0.0160695
-0.015792
-0.0151855
-0.0148346
-0.0137955
-0.0136
-0.0127513
-0.00852485
-0.00931004
-0.0107635
-0.012411
-0.0136661
-0.0145942
-0.0153422
-0.015896
-0.0162651
-0.016462
-0.0165328
-0.01648
-0.01634
-0.0160798
-0.0158129
-0.0151893
-0.0149588
-0.0137592
-0.0139169
-0.0129428
-0.00810569
-0.00891474
-0.0103579
-0.0120547
-0.0133785
-0.0143751
-0.015164
-0.015749
-0.0161434
-0.0163585
-0.0164366
-0.0163844
-0.0162287
-0.0159557
-0.015626
-0.0150018
-0.0146631
-0.0133456
-0.0137038
-0.0124752
-0.00720725
-0.00809364
-0.00956481
-0.0113203
-0.0127797
-0.013896
-0.0147714
-0.0154248
-0.0158752
-0.0161308
-0.0162267
-0.0161678
-0.0159796
-0.0156599
-0.0152234
-0.0145586
-0.0139521
-0.0125485
-0.0129202
-0.0113431
-0.00611876
-0.00704494
-0.00849643
-0.0102092
-0.0118412
-0.0131283
-0.0141395
-0.014903
-0.015439
-0.0157512
-0.0158694
-0.0158017
-0.0155662
-0.015162
-0.0145879
-0.0137846
-0.0128348
-0.0113348
-0.0115674
-0.00958998
-0.00509728
-0.00596682
-0.00726654
-0.00880905
-0.0105057
-0.0120033
-0.0132264
-0.0141593
-0.0148191
-0.0152114
-0.0153615
-0.0152793
-0.0149746
-0.0144421
-0.0136775
-0.0126379
-0.0113408
-0.00970704
-0.00972247
-0.0072784
-0.00462075
-0.00509869
-0.00592488
-0.00714385
-0.00877201
-0.0104657
-0.0119599
-0.0131399
-0.0139901
-0.0145064
-0.0147076
-0.0146071
-0.0142127
-0.0135123
-0.012502
-0.0111638
-0.00954149
-0.00772222
-0.00743442
-0.0044428
-0.00465335
-0.00456167
-0.00453671
-0.00525831
-0.00672257
-0.00852923
-0.0102966
-0.0117691
-0.0128681
-0.0135731
-0.0138847
-0.0137983
-0.0133098
-0.012425
-0.0111469
-0.0094808
-0.00750651
-0.0054812
-0.00474565
-0.000958731
-0.00455248
-0.00388228
-0.00306457
-0.00329134
-0.00456786
-0.00641951
-0.00838223
-0.0100989
-0.0114486
-0.012353
-0.0127915
-0.0127486
-0.0122316
-0.0112228
-0.00973339
-0.00777523
-0.00548998
-0.00307522
-0.00125252
0.0046032
-0.00390523
-0.00292409
-0.00173606
-0.00171572
-0.00283931
-0.00469222
-0.00677643
-0.00871243
-0.0102715
-0.0113642
-0.0119329
-0.0119705
-0.0114567
-0.0103919
-0.00877682
-0.0065907
-0.00381882
-0.000303
0.00516532
0.0177289
-0.00526826
-0.00201027
-0.000653598
-0.000724821
-0.00174824
-0.00356446
-0.00572373
-0.00784676
-0.00958543
-0.0108228
-0.0114979
-0.0116157
-0.0111694
-0.0101657
-0.00856279
-0.00619983
-0.00217806
0.00528213
0.0195916
0.0423618
)
;

boundaryField
{
    movingWall
    {
        type            zeroGradient;
    }
    fixedWalls
    {
        type            zeroGradient;
    }
    frontAndBack
    {
        type            empty;
    }
}


// ************************************************************************* //
