/*--------------------------------*- C++ -*----------------------------------*\
| =========                 |                                                 |
| \\      /  F ield         | OpenFOAM: The Open Source CFD Toolbox           |
|  \\    /   O peration     | Version:  5.0                                   |
|   \\  /    A nd           | Web:      www.OpenFOAM.org                      |
|    \\/     M anipulation  |                                                 |
\*---------------------------------------------------------------------------*/
FoamFile
{
    version     2.0;
    format      ascii;
    class       surfaceScalarField;
    location    "9.5";
    object      phi;
}
// * * * * * * * * * * * * * * * * * * * * * * * * * * * * * * * * * * * * * //

dimensions      [0 3 -1 0 0 0 0];

internalField   nonuniform List<scalar> 
760
(
2.93598e-07
-2.93606e-07
1.63692e-07
1.29906e-07
-5.6558e-07
7.29271e-07
-2.12736e-06
1.56178e-06
-3.97298e-06
1.84561e-06
-5.52935e-06
1.55637e-06
-6.84951e-06
1.32017e-06
-7.79423e-06
9.44713e-07
-8.53344e-06
7.39214e-07
-9.00672e-06
4.7328e-07
-9.31791e-06
3.11188e-07
-9.39329e-06
7.53792e-08
-9.29915e-06
-9.41424e-08
-8.96233e-06
-3.36818e-07
-8.39639e-06
-5.65941e-07
-7.43588e-06
-9.60512e-07
-6.03362e-06
-1.40226e-06
-4.0164e-06
-2.01721e-06
-1.63092e-06
-2.38549e-06
-1.63092e-06
-2.94895e-07
1.28849e-09
-1.30874e-06
1.14375e-06
-3.0625e-06
2.48302e-06
-4.77463e-06
3.27392e-06
-5.98538e-06
3.05637e-06
-7.08655e-06
2.65754e-06
-7.8853e-06
2.11892e-06
-8.57509e-06
1.6345e-06
-9.02741e-06
1.19153e-06
-9.31736e-06
7.63227e-07
-9.40489e-06
3.98718e-07
-9.32118e-06
-8.32847e-09
-9.11317e-06
-3.02149e-07
-8.76738e-06
-6.8261e-07
-8.19554e-06
-1.13778e-06
-7.40751e-06
-1.74854e-06
-6.23932e-06
-2.57044e-06
-4.60117e-06
-3.65537e-06
-2.35239e-06
-4.63427e-06
-3.98331e-06
-1.06791e-06
1.0692e-06
-2.6732e-06
2.74904e-06
-4.20781e-06
4.01764e-06
-5.33564e-06
4.40175e-06
-6.18977e-06
3.91049e-06
-6.84425e-06
3.31202e-06
-7.22596e-06
2.50063e-06
-7.45593e-06
1.86447e-06
-7.4582e-06
1.1938e-06
-7.41913e-06
7.24159e-07
-7.3109e-06
2.90492e-07
-7.24573e-06
-7.35001e-08
-7.03061e-06
-5.1727e-07
-6.73952e-06
-9.73693e-07
-6.29002e-06
-1.58729e-06
-5.72412e-06
-2.31445e-06
-4.98153e-06
-3.31303e-06
-3.94402e-06
-4.69288e-06
-2.33025e-06
-6.24804e-06
-6.31356e-06
-1.40568e-06
2.47487e-06
-2.98999e-06
4.33336e-06
-4.21708e-06
5.24472e-06
-4.97184e-06
5.15652e-06
-5.42104e-06
4.35969e-06
-5.56417e-06
3.45515e-06
-5.54019e-06
2.47665e-06
-5.49321e-06
1.81748e-06
-5.48291e-06
1.18351e-06
-5.48912e-06
7.30367e-07
-5.45051e-06
2.51876e-07
-5.36613e-06
-1.5788e-07
-5.23597e-06
-6.47425e-07
-5.03631e-06
-1.17335e-06
-4.70491e-06
-1.91869e-06
-4.21782e-06
-2.80153e-06
-3.63377e-06
-3.89707e-06
-2.91822e-06
-5.40843e-06
-1.81203e-06
-7.35423e-06
-8.12559e-06
-1.43175e-06
3.90663e-06
-2.7175e-06
5.61911e-06
-3.55102e-06
6.07824e-06
-3.99815e-06
5.60365e-06
-4.12301e-06
4.48454e-06
-4.09087e-06
3.42302e-06
-4.07595e-06
2.46172e-06
-4.07927e-06
1.82081e-06
-4.08145e-06
1.18569e-06
-4.07673e-06
7.25647e-07
-4.03896e-06
2.14111e-07
-3.97389e-06
-2.22956e-07
-3.86057e-06
-7.60739e-07
-3.70368e-06
-1.33024e-06
-3.50626e-06
-2.11611e-06
-3.16531e-06
-3.14249e-06
-2.72266e-06
-4.33972e-06
-2.25204e-06
-5.87905e-06
-1.43291e-06
-8.17335e-06
-9.5585e-06
-1.16608e-06
5.07271e-06
-2.08604e-06
6.53907e-06
-2.67877e-06
6.67096e-06
-2.94911e-06
5.874e-06
-2.99821e-06
4.53364e-06
-2.97416e-06
3.39896e-06
-3.0087e-06
2.49627e-06
-3.03189e-06
1.84399e-06
-3.04316e-06
1.19695e-06
-3.02345e-06
7.05941e-07
-2.97251e-06
1.63169e-07
-2.89491e-06
-3.00557e-07
-2.79409e-06
-8.61551e-07
-2.64933e-06
-1.475e-06
-2.48019e-06
-2.28525e-06
-2.24377e-06
-3.37891e-06
-1.89308e-06
-4.69042e-06
-1.51527e-06
-6.25686e-06
-1.08898e-06
-8.59964e-06
-1.06475e-05
-8.30773e-07
5.90348e-06
-1.47019e-06
7.17849e-06
-1.88742e-06
7.08819e-06
-2.04467e-06
6.03125e-06
-2.09063e-06
4.5796e-06
-2.12891e-06
3.43724e-06
-2.19308e-06
2.56044e-06
-2.22326e-06
1.87418e-06
-2.2285e-06
1.20219e-06
-2.18933e-06
6.66774e-07
-2.13621e-06
1.10052e-07
-2.0578e-06
-3.78973e-07
-1.98249e-06
-9.36862e-07
-1.88155e-06
-1.57593e-06
-1.76022e-06
-2.40659e-06
-1.60394e-06
-3.53519e-06
-1.35822e-06
-4.93613e-06
-1.08063e-06
-6.53446e-06
-8.01727e-07
-8.87854e-06
-1.14492e-05
-4.85048e-07
6.38853e-06
-8.96447e-07
7.58989e-06
-1.16931e-06
7.36106e-06
-1.28924e-06
6.15118e-06
-1.35423e-06
4.64459e-06
-1.42394e-06
3.50695e-06
-1.49272e-06
2.62922e-06
-1.5175e-06
1.89895e-06
-1.51573e-06
1.20042e-06
-1.47386e-06
6.24906e-07
-1.42672e-06
6.29079e-08
-1.35245e-06
-4.53243e-07
-1.28598e-06
-1.00332e-06
-1.21636e-06
-1.64556e-06
-1.1306e-06
-2.49235e-06
-1.03461e-06
-3.63118e-06
-8.61545e-07
-5.1092e-06
-6.77798e-07
-6.71821e-06
-5.85983e-07
-8.97036e-06
-1.20352e-05
-2.09889e-07
6.59842e-06
-4.24942e-07
7.80494e-06
-5.75958e-07
7.51207e-06
-6.7141e-07
6.24663e-06
-7.33058e-07
4.70624e-06
-7.98569e-07
3.57246e-06
-8.61944e-07
2.6926e-06
-8.89668e-07
1.92667e-06
-8.96539e-07
1.20729e-06
-8.70718e-07
5.99085e-07
-8.45119e-07
3.73092e-08
-8.05265e-07
-4.93098e-07
-7.63617e-07
-1.04497e-06
-7.28462e-07
-1.68072e-06
-6.81091e-07
-2.53972e-06
-6.25742e-07
-3.68653e-06
-5.62418e-07
-5.17252e-06
-4.70966e-07
-6.80966e-06
-4.19169e-07
-9.02215e-06
-1.24544e-05
7.13629e-08
6.52706e-06
4.74693e-09
7.87156e-06
-3.84446e-08
7.55527e-06
-7.13469e-08
6.27953e-06
-1.39161e-07
4.77405e-06
-2.19809e-07
3.65311e-06
-2.75599e-07
2.74839e-06
-3.03356e-07
1.95443e-06
-3.16727e-07
1.22066e-06
-3.11695e-07
5.94052e-07
-3.10685e-07
3.62997e-08
-3.07568e-07
-4.96214e-07
-2.84738e-07
-1.0678e-06
-2.83875e-07
-1.68158e-06
-2.50393e-07
-2.5732e-06
-2.52251e-07
-3.68467e-06
-2.19005e-07
-5.20577e-06
-2.25632e-07
-6.80303e-06
-3.17771e-07
-8.93001e-06
-1.27721e-05
3.27078e-07
6.19998e-06
4.65855e-07
7.73278e-06
5.28216e-07
7.4929e-06
4.62586e-07
6.34516e-06
3.94223e-07
4.84242e-06
3.37709e-07
3.70963e-06
2.9611e-07
2.78999e-06
2.6579e-07
1.98475e-06
2.34819e-07
1.25163e-06
2.02903e-07
6.25968e-07
1.78609e-07
6.05941e-08
1.50023e-07
-4.67629e-07
1.35112e-07
-1.05289e-06
9.77104e-08
-1.64418e-06
1.12927e-07
-2.58842e-06
7.33887e-09
-3.57908e-06
4.60304e-08
-5.24446e-06
-1.05612e-07
-6.65139e-06
-2.17864e-07
-8.81776e-06
-1.299e-05
5.69872e-07
5.63011e-06
9.11026e-07
7.39163e-06
1.09467e-06
7.30926e-06
1.04174e-06
6.39809e-06
9.69496e-07
4.91466e-06
9.16204e-07
3.76292e-06
8.79101e-07
2.82709e-06
8.4366e-07
2.02019e-06
7.94996e-07
1.3003e-06
7.41639e-07
6.79325e-07
6.9149e-07
1.10743e-07
6.46065e-07
-4.22204e-07
5.86149e-07
-9.92977e-07
5.59257e-07
-1.61728e-06
4.88689e-07
-2.51785e-06
4.25613e-07
-3.516e-06
3.04506e-07
-5.12335e-06
5.7186e-08
-6.40407e-06
-1.32708e-07
-8.62787e-06
-1.31227e-05
8.47989e-07
4.78212e-06
1.31975e-06
6.91986e-06
1.62576e-06
7.00325e-06
1.66501e-06
6.35883e-06
1.58303e-06
4.99665e-06
1.53918e-06
3.80676e-06
1.51515e-06
2.85112e-06
1.48509e-06
2.05025e-06
1.4356e-06
1.34979e-06
1.37318e-06
7.41741e-07
1.29335e-06
1.90568e-07
1.21408e-06
-3.42928e-07
1.11783e-06
-8.96724e-07
1.04725e-06
-1.5467e-06
9.12627e-07
-2.38323e-06
8.03583e-07
-3.40696e-06
5.57245e-07
-4.87701e-06
2.40132e-07
-6.08695e-06
1.42945e-08
-8.40203e-06
-1.31084e-05
1.0875e-06
3.69462e-06
1.77314e-06
6.23421e-06
2.18092e-06
6.59547e-06
2.35185e-06
6.18791e-06
2.29218e-06
5.05632e-06
2.25337e-06
3.84557e-06
2.23776e-06
2.86673e-06
2.21826e-06
2.06976e-06
2.17521e-06
1.39284e-06
2.11134e-06
8.05614e-07
2.02112e-06
2.80787e-07
1.9181e-06
-2.39909e-07
1.79771e-06
-7.76331e-07
1.67226e-06
-1.42126e-06
1.49683e-06
-2.2078e-06
1.31839e-06
-3.22852e-06
9.61675e-07
-4.5203e-06
5.26315e-07
-5.65159e-06
1.34459e-07
-8.01018e-06
-1.29739e-05
1.31437e-06
2.38025e-06
2.09292e-06
5.45567e-06
2.63142e-06
6.05697e-06
3.00733e-06
5.81199e-06
3.11938e-06
4.94427e-06
3.12167e-06
3.84328e-06
3.10021e-06
2.88819e-06
3.08226e-06
2.08771e-06
3.04273e-06
1.43237e-06
2.9817e-06
8.66645e-07
2.89026e-06
3.72226e-07
2.77514e-06
-1.24781e-07
2.62425e-06
-6.2544e-07
2.44864e-06
-1.24566e-06
2.2173e-06
-1.97645e-06
1.91354e-06
-2.92477e-06
1.398e-06
-4.00476e-06
7.69759e-07
-5.02335e-06
2.96116e-07
-7.53653e-06
-1.26778e-05
1.35457e-06
1.02568e-06
2.26781e-06
4.54242e-06
2.96895e-06
5.35583e-06
3.58908e-06
5.19186e-06
3.94837e-06
4.58498e-06
4.10242e-06
3.68923e-06
4.16426e-06
2.82635e-06
4.17951e-06
2.07246e-06
4.15209e-06
1.45979e-06
4.09027e-06
9.28463e-07
3.9926e-06
4.69895e-07
3.87181e-06
-3.99361e-09
3.68406e-06
-4.3769e-07
3.45077e-06
-1.01237e-06
3.1173e-06
-1.64297e-06
2.65246e-06
-2.45993e-06
1.97973e-06
-3.33203e-06
1.1664e-06
-4.21002e-06
5.43149e-07
-6.91328e-06
-1.21347e-05
7.99596e-07
2.26086e-07
1.96967e-06
3.37235e-06
3.04403e-06
4.28148e-06
3.94196e-06
4.29393e-06
4.61785e-06
3.90908e-06
5.05636e-06
3.25072e-06
5.3163e-06
2.56641e-06
5.45454e-06
1.93422e-06
5.50649e-06
1.40784e-06
5.50249e-06
9.32467e-07
5.42634e-06
5.46043e-07
5.2583e-06
1.64047e-07
5.0272e-06
-2.06591e-07
4.69293e-06
-6.78097e-07
4.20307e-06
-1.15311e-06
3.52095e-06
-1.77781e-06
2.57936e-06
-2.39044e-06
1.54116e-06
-3.17182e-06
8.67395e-07
-6.23952e-06
-1.12673e-05
-1.57798e-07
3.83884e-07
1.25897e-06
1.95559e-06
2.60483e-06
2.93562e-06
3.84345e-06
3.05531e-06
4.86849e-06
2.88405e-06
5.65796e-06
2.46125e-06
6.21094e-06
2.01343e-06
6.60379e-06
1.54137e-06
6.81116e-06
1.20048e-06
6.90944e-06
8.34184e-07
6.85635e-06
5.9913e-07
6.73506e-06
2.85335e-07
6.43158e-06
9.68961e-08
6.00282e-06
-2.49339e-07
5.33238e-06
-4.82664e-07
4.47915e-06
-9.24587e-07
3.25344e-06
-1.16473e-06
2.20613e-06
-2.12451e-06
1.43144e-06
-5.46484e-06
-9.83584e-06
-1.18728e-06
1.57116e-06
-1.47369e-07
9.15675e-07
1.46823e-06
1.32001e-06
3.02912e-06
1.49442e-06
4.39535e-06
1.51781e-06
5.50421e-06
1.3524e-06
6.33761e-06
1.18002e-06
6.93663e-06
9.42352e-07
7.3381e-06
7.99011e-07
7.55049e-06
6.21795e-07
7.61986e-06
5.29753e-07
7.51604e-06
3.89159e-07
7.28842e-06
3.24511e-07
6.85911e-06
1.79973e-07
6.27172e-06
1.04729e-07
5.44209e-06
-9.49597e-08
4.56974e-06
-2.92382e-07
3.86326e-06
-1.41803e-06
2.63066e-06
-4.23224e-06
-7.20518e-06
1.57116e-06
2.48684e-06
3.80685e-06
5.30127e-06
6.81909e-06
8.17148e-06
9.3515e-06
1.02939e-05
1.10929e-05
1.17147e-05
1.22444e-05
1.26336e-05
1.29581e-05
1.31381e-05
1.32428e-05
1.31478e-05
1.28554e-05
1.14374e-05
7.20518e-06
)
;

boundaryField
{
    movingWall
    {
        type            calculated;
        value           uniform 0;
    }
    fixedWalls
    {
        type            calculated;
        value           uniform 0;
    }
    frontAndBack
    {
        type            empty;
        value           nonuniform 0();
    }
}


// ************************************************************************* //
