/*--------------------------------*- C++ -*----------------------------------*\
| =========                 |                                                 |
| \\      /  F ield         | OpenFOAM: The Open Source CFD Toolbox           |
|  \\    /   O peration     | Version:  5.0                                   |
|   \\  /    A nd           | Web:      www.OpenFOAM.org                      |
|    \\/     M anipulation  |                                                 |
\*---------------------------------------------------------------------------*/
FoamFile
{
    version     2.0;
    format      ascii;
    class       volVectorField;
    location    "9.5";
    object      U;
}
// * * * * * * * * * * * * * * * * * * * * * * * * * * * * * * * * * * * * * //

dimensions      [0 1 -1 0 0 0 0];

internalField   nonuniform List<vector> 
400
(
(0.00259844 -0.00422164 0)
(0.00867969 -0.0021548 0)
(-0.00313299 0.00163739 0)
(-0.016045 0.00970813 0)
(-0.0663426 0.0206125 0)
(-0.0990554 0.015049 0)
(-0.129218 0.0150884 0)
(-0.148984 0.0114566 0)
(-0.165973 0.0101736 0)
(-0.176597 0.00733844 0)
(-0.184756 0.00602689 0)
(-0.188362 0.00363494 0)
(-0.189408 0.00183859 0)
(-0.18464 -0.00181665 0)
(-0.174546 -0.00431586 0)
(-0.157263 -0.00997807 0)
(-0.131883 -0.0144835 0)
(-0.0973852 -0.0208584 0)
(-0.0579478 -0.0193946 0)
(-0.0111709 -0.00482945 0)
(-0.00094047 -0.00872632 0)
(-0.010456 0.00788906 0)
(-0.0391823 0.0305358 0)
(-0.0802735 0.0516318 0)
(-0.112372 0.048774 0)
(-0.133987 0.0428282 0)
(-0.152605 0.035381 0)
(-0.166713 0.024843 0)
(-0.177734 0.0182483 0)
(-0.184561 0.0104399 0)
(-0.188877 0.00528425 0)
(-0.189427 -0.00135573 0)
(-0.187063 -0.00661375 0)
(-0.181129 -0.0140253 0)
(-0.171017 -0.0218515 0)
(-0.155621 -0.0335448 0)
(-0.134069 -0.0478629 0)
(-0.104976 -0.0666632 0)
(-0.0711704 -0.0798465 0)
(-0.018055 -0.055442 0)
(-0.00858052 0.00915006 0)
(-0.0345562 0.0406817 0)
(-0.0697974 0.0667454 0)
(-0.0999491 0.0767452 0)
(-0.119007 0.0691399 0)
(-0.132198 0.0591817 0)
(-0.143709 0.0446943 0)
(-0.148574 0.0352313 0)
(-0.149191 0.0246009 0)
(-0.149105 0.0162784 0)
(-0.147794 0.00799695 0)
(-0.146508 0.000623143 0)
(-0.144495 -0.00737743 0)
(-0.139155 -0.0159411 0)
(-0.132051 -0.0273919 0)
(-0.121152 -0.0418209 0)
(-0.106191 -0.062724 0)
(-0.0852295 -0.0893721 0)
(-0.0638867 -0.11642 0)
(-0.0218137 -0.113441 0)
(-0.0116874 0.0360693 0)
(-0.0452433 0.0723817 0)
(-0.0768398 0.0939145 0)
(-0.0968215 0.0947458 0)
(-0.107159 0.0817555 0)
(-0.112912 0.0671947 0)
(-0.111614 0.0505639 0)
(-0.108759 0.0368637 0)
(-0.109844 0.0238358 0)
(-0.109266 0.0141997 0)
(-0.109926 0.00483718 0)
(-0.108874 -0.00294852 0)
(-0.107394 -0.0121034 0)
(-0.103962 -0.0219122 0)
(-0.0981265 -0.0350994 0)
(-0.091292 -0.0507169 0)
(-0.0797879 -0.0723156 0)
(-0.0606562 -0.103745 0)
(-0.0492559 -0.140212 0)
(-0.0167219 -0.148502 0)
(-0.0121392 0.0628668 0)
(-0.046212 0.0989449 0)
(-0.0672822 0.111353 0)
(-0.0804839 0.105894 0)
(-0.083285 0.088385 0)
(-0.0824626 0.0701685 0)
(-0.0797507 0.0506386 0)
(-0.0812546 0.037483 0)
(-0.0810114 0.0243792 0)
(-0.0818036 0.0150222 0)
(-0.0810385 0.00477169 0)
(-0.0809304 -0.00383287 0)
(-0.0788519 -0.0145908 0)
(-0.0771827 -0.025906 0)
(-0.071654 -0.0416026 0)
(-0.0672915 -0.0601784 0)
(-0.0621226 -0.0822505 0)
(-0.0425969 -0.11347 0)
(-0.0437563 -0.159364 0)
(-0.00692829 -0.181831 0)
(-0.0104266 0.088221 0)
(-0.0376836 0.120407 0)
(-0.0509222 0.126648 0)
(-0.0611883 0.115115 0)
(-0.0594171 0.092113 0)
(-0.0585134 0.0694414 0)
(-0.0582708 0.0505824 0)
(-0.060763 0.0374587 0)
(-0.0600033 0.024414 0)
(-0.0612696 0.0147655 0)
(-0.0592971 0.00410503 0)
(-0.0594645 -0.0049167 0)
(-0.0566991 -0.0159904 0)
(-0.0560164 -0.0277295 0)
(-0.0514774 -0.0438013 0)
(-0.0457113 -0.065206 0)
(-0.0463603 -0.0896738 0)
(-0.0259475 -0.119975 0)
(-0.0339381 -0.167196 0)
(-0.00377829 -0.202564 0)
(-0.00787762 0.109033 0)
(-0.0268908 0.135826 0)
(-0.0365123 0.136483 0)
(-0.0433309 0.118319 0)
(-0.0399747 0.0906911 0)
(-0.0411914 0.0685002 0)
(-0.0424078 0.0505916 0)
(-0.0445892 0.0370419 0)
(-0.0438065 0.0237679 0)
(-0.0447884 0.0134162 0)
(-0.0425189 0.00236621 0)
(-0.0425887 -0.00726009 0)
(-0.039882 -0.0186615 0)
(-0.0392578 -0.0312143 0)
(-0.0378002 -0.0473641 0)
(-0.0305956 -0.0696972 0)
(-0.0355055 -0.0965051 0)
(-0.0158977 -0.128722 0)
(-0.0292449 -0.175443 0)
(0.00200568 -0.222173 0)
(-0.004197 0.122552 0)
(-0.0163991 0.147268 0)
(-0.0228438 0.144446 0)
(-0.0274087 0.122259 0)
(-0.0244945 0.0936816 0)
(-0.0274799 0.0701501 0)
(-0.0288668 0.052238 0)
(-0.0304387 0.0379342 0)
(-0.029668 0.0242642 0)
(-0.0303444 0.0132128 0)
(-0.0283212 0.00205715 0)
(-0.0282464 -0.00780658 0)
(-0.0262091 -0.0187663 0)
(-0.0245348 -0.0316615 0)
(-0.0258517 -0.0482282 0)
(-0.0174502 -0.0711445 0)
(-0.0258702 -0.0992146 0)
(-0.00592914 -0.131171 0)
(-0.0232571 -0.177364 0)
(0.00358842 -0.234049 0)
(-0.00125788 0.131023 0)
(-0.00793663 0.154141 0)
(-0.0112503 0.148477 0)
(-0.0142577 0.123574 0)
(-0.0120027 0.0922842 0)
(-0.0157127 0.069961 0)
(-0.0164757 0.0528744 0)
(-0.0177608 0.0381107 0)
(-0.0172946 0.0239885 0)
(-0.0179504 0.0120615 0)
(-0.0166083 0.000593651 0)
(-0.016634 -0.00993654 0)
(-0.0160597 -0.0208573 0)
(-0.0136205 -0.033636 0)
(-0.0171556 -0.0507028 0)
(-0.00808025 -0.0735055 0)
(-0.0192535 -0.103658 0)
(-0.00029143 -0.136246 0)
(-0.0210155 -0.180399 0)
(0.0073102 -0.246156 0)
(0.00235128 0.132303 0)
(0.000142284 0.158061 0)
(-0.000218096 0.151562 0)
(-0.00199087 0.125747 0)
(-0.000539626 0.0961755 0)
(-0.00433628 0.0732966 0)
(-0.00476657 0.0551765 0)
(-0.00606241 0.039373 0)
(-0.00576591 0.0246378 0)
(-0.00643973 0.0121426 0)
(-0.00601055 0.000912557 0)
(-0.00598076 -0.00964241 0)
(-0.00672945 -0.0207356 0)
(-0.00392523 -0.0330251 0)
(-0.00872057 -0.0508576 0)
(0.000379148 -0.0726108 0)
(-0.0126147 -0.104054 0)
(0.00641271 -0.134523 0)
(-0.0179511 -0.180051 0)
(0.0081598 -0.252653 0)
(0.00550945 0.12913 0)
(0.00692858 0.157703 0)
(0.00973187 0.151278 0)
(0.00905284 0.1261 0)
(0.0101364 0.0948741 0)
(0.00662727 0.0725413 0)
(0.00661349 0.0547255 0)
(0.00545983 0.0388995 0)
(0.00541131 0.0243141 0)
(0.00441284 0.0118206 0)
(0.0037396 0.000601611 0)
(0.00374001 -0.00992654 0)
(0.00197264 -0.0216028 0)
(0.00396349 -0.0337317 0)
(-0.000862265 -0.052352 0)
(0.00665797 -0.0734323 0)
(-0.00704011 -0.106658 0)
(0.0103354 -0.135831 0)
(-0.0168341 -0.179327 0)
(0.0110795 -0.25889 0)
(0.00719048 0.120176 0)
(0.0144121 0.153801 0)
(0.0197367 0.150049 0)
(0.020757 0.128071 0)
(0.0216676 0.0988061 0)
(0.0184551 0.0754666 0)
(0.0183349 0.0566717 0)
(0.0172769 0.0404835 0)
(0.0168377 0.0258985 0)
(0.0156677 0.0132915 0)
(0.0142007 0.00180979 0)
(0.013979 -0.00898001 0)
(0.0115359 -0.0206632 0)
(0.0126734 -0.0327668 0)
(0.00815287 -0.0509388 0)
(0.0136898 -0.0712391 0)
(0.000127513 -0.103319 0)
(0.0160212 -0.130399 0)
(-0.0156528 -0.175361 0)
(0.013052 -0.261462 0)
(0.0107863 0.109124 0)
(0.0210465 0.145687 0)
(0.0292545 0.144305 0)
(0.0320164 0.127911 0)
(0.0337391 0.0967329 0)
(0.0310932 0.0740372 0)
(0.0310233 0.0555796 0)
(0.0302354 0.0396629 0)
(0.0295495 0.0255373 0)
(0.0286818 0.0133714 0)
(0.0264758 0.00236742 0)
(0.0259209 -0.00832048 0)
(0.0224834 -0.0195613 0)
(0.0226998 -0.0325962 0)
(0.0177919 -0.0501577 0)
(0.0208471 -0.0712055 0)
(0.0077165 -0.101607 0)
(0.0198291 -0.127327 0)
(-0.0144065 -0.170392 0)
(0.0167243 -0.262147 0)
(0.0126447 0.0861953 0)
(0.028113 0.135267 0)
(0.0402096 0.137849 0)
(0.0440625 0.127959 0)
(0.0473238 0.101541 0)
(0.0456338 0.0764263 0)
(0.045316 0.0572451 0)
(0.0449727 0.0415573 0)
(0.0440783 0.0279192 0)
(0.0438013 0.0159854 0)
(0.0410644 0.00513005 0)
(0.0404318 -0.00560758 0)
(0.0361458 -0.0167642 0)
(0.0355739 -0.0300133 0)
(0.0300736 -0.046432 0)
(0.0310772 -0.0666611 0)
(0.0186008 -0.0930508 0)
(0.0263118 -0.116693 0)
(-0.0115851 -0.163544 0)
(0.0202896 -0.260053 0)
(0.0164299 0.0668129 0)
(0.0329829 0.118655 0)
(0.0482927 0.127133 0)
(0.0552955 0.120036 0)
(0.0611127 0.100449 0)
(0.0620018 0.0757827 0)
(0.0622489 0.0557539 0)
(0.0625348 0.0399886 0)
(0.0612132 0.027092 0)
(0.0614292 0.0159689 0)
(0.0583412 0.00604482 0)
(0.0577679 -0.00405331 0)
(0.0529015 -0.0144898 0)
(0.051567 -0.0271105 0)
(0.0451147 -0.0423086 0)
(0.0439528 -0.0617517 0)
(0.031158 -0.085943 0)
(0.0319443 -0.10784 0)
(-0.00892023 -0.155246 0)
(0.0260832 -0.257416 0)
(0.0151493 0.0274317 0)
(0.0373888 0.102449 0)
(0.0543292 0.116945 0)
(0.0649919 0.113705 0)
(0.0742154 0.0993339 0)
(0.0797349 0.078452 0)
(0.0818748 0.0585338 0)
(0.084233 0.0420167 0)
(0.0830685 0.0288406 0)
(0.0838815 0.0177518 0)
(0.080426 0.00845851 0)
(0.079821 -0.000813944 0)
(0.0744654 -0.0101112 0)
(0.072277 -0.0218032 0)
(0.06473 -0.0352133 0)
(0.061127 -0.0529778 0)
(0.0468322 -0.0722741 0)
(0.0402193 -0.0907807 0)
(-0.0031759 -0.144738 0)
(0.0326227 -0.253018 0)
(0.00272561 0.010198 0)
(0.030659 0.0735108 0)
(0.0528716 0.0961434 0)
(0.0688928 0.096887 0)
(0.0838307 0.0877908 0)
(0.0956356 0.0726665 0)
(0.10226 0.0569734 0)
(0.108262 0.0420442 0)
(0.109164 0.0294919 0)
(0.111481 0.0184828 0)
(0.10882 0.00942658 0)
(0.10822 0.000566507 0)
(0.102214 -0.00784829 0)
(0.0984703 -0.0178464 0)
(0.0889932 -0.0286883 0)
(0.081107 -0.042694 0)
(0.0635087 -0.0573408 0)
(0.047447 -0.0756655 0)
(0.00307735 -0.137401 0)
(0.0422701 -0.248302 0)
(-0.0200993 -0.0024608 0)
(0.015031 0.0590289 0)
(0.0405415 0.0786755 0)
(0.0639482 0.080344 0)
(0.0847413 0.0741664 0)
(0.104676 0.0626095 0)
(0.116787 0.0505264 0)
(0.128897 0.0397676 0)
(0.133018 0.0305065 0)
(0.138634 0.0217813 0)
(0.137159 0.0146813 0)
(0.13764 0.00726831 0)
(0.131043 0.000956715 0)
(0.126512 -0.00681386 0)
(0.113859 -0.014164 0)
(0.102548 -0.0242926 0)
(0.0802262 -0.0346849 0)
(0.056075 -0.054012 0)
(0.018524 -0.126657 0)
(0.0552086 -0.235148 0)
(-0.0268598 0.0220727 0)
(-0.0169054 0.0222033 0)
(0.0129586 0.0403471 0)
(0.0453975 0.0442553 0)
(0.0721681 0.0435859 0)
(0.0991056 0.0381283 0)
(0.116875 0.0324704 0)
(0.133176 0.024221 0)
(0.142277 0.0197015 0)
(0.1497 0.0133187 0)
(0.152128 0.0106567 0)
(0.152337 0.00496076 0)
(0.148298 0.00347737 0)
(0.143122 -0.00214621 0)
(0.130583 -0.0036002 0)
(0.119715 -0.0106268 0)
(0.0948903 -0.0144066 0)
(0.0786308 -0.0405123 0)
(0.0572102 -0.113818 0)
(0.0794987 -0.184217 0)
(0.0349797 0.0315531 0)
(0.039291 0.0178434 0)
(0.0570019 0.0164482 0)
(0.0910899 0.0183373 0)
(0.118681 0.020139 0)
(0.148761 0.0191451 0)
(0.172924 0.0177 0)
(0.195829 0.0157206 0)
(0.213352 0.0138004 0)
(0.228745 0.0124741 0)
(0.240025 0.0107823 0)
(0.249514 0.0100485 0)
(0.256098 0.00848661 0)
(0.260825 0.00822666 0)
(0.264179 0.00682792 0)
(0.263447 0.00602424 0)
(0.257484 0.00528092 0)
(0.243031 -0.002088 0)
(0.202877 -0.0141728 0)
(0.149168 -0.033406 0)
)
;

boundaryField
{
    movingWall
    {
        type            fixedValue;
        value           uniform (1 0 0);
    }
    fixedWalls
    {
        type            noSlip;
    }
    frontAndBack
    {
        type            empty;
    }
}


// ************************************************************************* //
