/*--------------------------------*- C++ -*----------------------------------*\
| =========                 |                                                 |
| \\      /  F ield         | OpenFOAM: The Open Source CFD Toolbox           |
|  \\    /   O peration     | Version:  5.0                                   |
|   \\  /    A nd           | Web:      www.OpenFOAM.org                      |
|    \\/     M anipulation  |                                                 |
\*---------------------------------------------------------------------------*/
FoamFile
{
    version     2.0;
    format      ascii;
    class       volScalarField;
    location    "9.5";
    object      yPlus;
}
// * * * * * * * * * * * * * * * * * * * * * * * * * * * * * * * * * * * * * //

dimensions      [0 0 0 0 0 0 0];

internalField   uniform 0;

boundaryField
{
    movingWall
    {
        type            calculated;
        value           nonuniform List<scalar> 
20
(
15.5365
15.499
15.3553
15.0756
14.8454
14.5898
14.3811
14.1803
14.0247
13.8866
13.7845
13.6981
13.6377
13.5943
13.5633
13.57
13.6247
13.7566
14.1178
14.5901
)
;
    }
    fixedWalls
    {
        type            calculated;
        value           nonuniform List<scalar> 
60
(
1.11324
1.48129
1.77087
3.07878
4.00088
4.71262
5.22774
5.53678
5.7234
5.75161
5.68435
5.48614
5.23583
4.66685
4.14739
2.79897
1.6245
2.24997
2.94812
3.43177
1.74429
3.81798
5.37399
6.11229
6.74468
7.11687
7.45289
7.64978
7.84641
7.9496
8.04871
8.08993
8.1037
8.07532
8.04261
7.98612
7.93527
7.77081
7.08235
6.18189
1.11324
1.49526
0.940088
2.16526
4.16746
5.0048
5.70298
6.11195
6.44757
6.64736
6.79806
6.86289
6.88144
6.79428
6.6068
6.27653
5.75925
4.98984
3.90856
1.74429
)
;
    }
    frontAndBack
    {
        type            empty;
    }
}


// ************************************************************************* //
