/*--------------------------------*- C++ -*----------------------------------*\
| =========                 |                                                 |
| \\      /  F ield         | OpenFOAM: The Open Source CFD Toolbox           |
|  \\    /   O peration     | Version:  5.0                                   |
|   \\  /    A nd           | Web:      www.OpenFOAM.org                      |
|    \\/     M anipulation  |                                                 |
\*---------------------------------------------------------------------------*/
FoamFile
{
    version     2.0;
    format      ascii;
    class       volVectorField;
    location    "0.3";
    object      wallShearStress;
}
// * * * * * * * * * * * * * * * * * * * * * * * * * * * * * * * * * * * * * //

dimensions      [0 2 -2 0 0 0 0];

internalField   uniform (0 0 0);

boundaryField
{
    movingWall
    {
        type            calculated;
        value           nonuniform List<vector> 
20
(
(3.07518 -1.24307 0)
(2.34491 -0.851893 0)
(1.68654 -0.591287 0)
(1.25153 -0.357502 0)
(0.995967 -0.211494 0)
(0.835032 -0.129022 0)
(0.728331 -0.0803332 0)
(0.657999 -0.0493157 0)
(0.614108 -0.0277547 0)
(0.590998 -0.0109838 0)
(0.58598 0.00398923 0)
(0.598641 0.0195907 0)
(0.630799 0.0386325 0)
(0.68725 0.0655419 0)
(0.777343 0.108517 0)
(0.918769 0.184767 0)
(1.15268 0.329287 0)
(1.57561 0.576375 0)
(2.25988 0.865385 0)
(3.04206 1.28026 0)
)
;
    }
    fixedWalls
    {
        type            calculated;
        value           nonuniform List<vector> 
60
(
(-0.00163118 0.000825615 0)
(0.00130775 0.0014592 0)
(0.00525164 -0.00351554 0)
(0.00880736 -0.0131681 0)
(0.0119773 -0.02683 0)
(0.0149721 -0.0441981 0)
(0.0179989 -0.0652111 0)
(0.0212459 -0.090002 0)
(0.0249044 -0.118873 0)
(0.0292282 -0.152297 0)
(0.0346423 -0.190988 0)
(0.0419357 -0.236068 0)
(0.0525929 -0.289439 0)
(0.0692968 -0.354463 0)
(0.0965027 -0.437179 0)
(0.140315 -0.54895 0)
(0.201411 -0.714744 0)
(0.224895 -0.990237 0)
(-0.105167 -1.4567 0)
(-1.88319 -2.27668 0)
(-0.00175496 -0.000824166 0)
(0.00103455 -0.00165432 0)
(0.00484445 0.00297622 0)
(0.00829427 0.0121719 0)
(0.0114215 0.0253149 0)
(0.0145029 0.0422152 0)
(0.0178323 0.0630138 0)
(0.0216983 0.0881506 0)
(0.0264041 0.118345 0)
(0.0323218 0.154601 0)
(0.0399927 0.198261 0)
(0.0503045 0.25115 0)
(0.0647837 0.315876 0)
(0.0859816 0.396396 0)
(0.117721 0.498966 0)
(0.164065 0.63441 0)
(0.219296 0.82567 0)
(0.212864 1.11681 0)
(-0.177061 1.53726 0)
(-1.94668 2.27062 0)
(-0.000874586 0.00159844 0)
(-0.00137973 -0.00154784 0)
(0.00393409 -0.00542566 0)
(0.0134423 -0.00818617 0)
(0.025331 -0.00956847 0)
(0.0379625 -0.00967872 0)
(0.0499089 -0.00871805 0)
(0.059998 -0.00691274 0)
(0.0673282 -0.00448659 0)
(0.071267 -0.00165931 0)
(0.0714557 0.00134341 0)
(0.0678249 0.00427891 0)
(0.0606215 0.00688152 0)
(0.0504326 0.00886444 0)
(0.0382025 0.00993231 0)
(0.0252251 0.00981108 0)
(0.0130842 0.00830173 0)
(0.00353788 0.0053651 0)
(-0.00160426 0.0013848 0)
(-0.000899351 -0.0017087 0)
)
;
    }
    frontAndBack
    {
        type            empty;
    }
}


// ************************************************************************* //
