/*--------------------------------*- C++ -*----------------------------------*\
| =========                 |                                                 |
| \\      /  F ield         | OpenFOAM: The Open Source CFD Toolbox           |
|  \\    /   O peration     | Version:  5.0                                   |
|   \\  /    A nd           | Web:      www.OpenFOAM.org                      |
|    \\/     M anipulation  |                                                 |
\*---------------------------------------------------------------------------*/
FoamFile
{
    version     2.0;
    format      ascii;
    class       volScalarField;
    location    "1.5";
    object      epsilon;
}
// * * * * * * * * * * * * * * * * * * * * * * * * * * * * * * * * * * * * * //

dimensions      [0 2 -3 0 0 0 0];

internalField   nonuniform List<scalar> 
400
(
0.000174471
0.000291475
0.000386493
0.000446195
0.00048256
0.000505883
0.000523105
0.000538433
0.000553925
0.000569911
0.000585387
0.000598065
0.000604078
0.000605685
0.000605713
0.000583747
0.000531384
0.000434724
0.000285675
0.000182362
0.000295649
0.000272075
0.000321128
0.000358898
0.000383207
0.000398725
0.000409634
0.000418458
0.000426204
0.00043275
0.000437023
0.000439082
0.000440077
0.000442029
0.000446391
0.000447431
0.000432724
0.000386593
0.000313669
0.000291167
0.000429207
0.000320416
0.000346151
0.000375561
0.000396693
0.000410714
0.000420405
0.000427808
0.000434007
0.000439424
0.000444435
0.00045052
0.000460607
0.000478427
0.000506615
0.000542937
0.000565031
0.00055304
0.000449818
0.000379967
0.000531448
0.00036852
0.000378053
0.000401131
0.000419966
0.000433467
0.000443297
0.000451299
0.000458961
0.000467693
0.000479473
0.000497754
0.000527668
0.000576338
0.000653559
0.000771711
0.000906197
0.000962346
0.000858586
0.000656636
0.000607616
0.000405687
0.000405275
0.00042441
0.000442184
0.000456319
0.000468029
0.000479216
0.000491911
0.000508498
0.000532449
0.000569754
0.000630227
0.000732547
0.000914109
0.00123253
0.00165118
0.00183977
0.00185206
0.00153682
0.000663883
0.0004338
0.000427419
0.000444042
0.000461435
0.000476652
0.000490837
0.000506221
0.00052556
0.000552417
0.000592321
0.00065529
0.000760787
0.000952689
0.00131761
0.00193652
0.00261329
0.00293434
0.00303096
0.00285586
0.000705216
0.000455155
0.000444748
0.000459831
0.000477233
0.000493706
0.000510553
0.000530469
0.000556984
0.000594857
0.000651883
0.000743029
0.000900741
0.00119783
0.00175404
0.00256282
0.00325322
0.00360729
0.0037401
0.00375901
0.000735442
0.000471294
0.000457915
0.000471932
0.00048943
0.000507029
0.000526251
0.000550221
0.000583047
0.000630268
0.000701111
0.000813757
0.00100984
0.00138036
0.00203606
0.00287447
0.00357503
0.00400698
0.00417104
0.00423623
0.000757552
0.000483457
0.000467614
0.000480634
0.000498015
0.000516296
0.000537156
0.000563943
0.000600914
0.000653521
0.000730547
0.000849342
0.00105382
0.00144573
0.00212575
0.00296972
0.00379363
0.00444107
0.00467888
0.00469545
0.000773966
0.000492674
0.000474512
0.000486317
0.000503151
0.000521465
0.000542952
0.000570888
0.000609068
0.000661556
0.000734308
0.000842743
0.00103232
0.00140482
0.00206277
0.00292382
0.00388171
0.00484884
0.00523006
0.00504634
0.00078678
0.00049982
0.000479242
0.000489473
0.000505269
0.000522922
0.000544021
0.000571469
0.00060839
0.000658216
0.000724687
0.000818446
0.000976649
0.00129909
0.00189377
0.00275439
0.00388256
0.00520285
0.00585739
0.00530239
0.000797778
0.000505595
0.000482408
0.000490756
0.00050524
0.000522141
0.000542694
0.000569333
0.000604303
0.00064887
0.000703894
0.000775237
0.000892757
0.0011435
0.00165288
0.00249633
0.00376253
0.00539156
0.00650653
0.00550186
0.000809226
0.000510706
0.000484696
0.000491275
0.000505017
0.000521694
0.000542285
0.000568556
0.00060162
0.000641045
0.000685157
0.000736127
0.0008162
0.000995172
0.00140183
0.00218981
0.00353594
0.00545781
0.00713111
0.00561868
0.00082197
0.000515466
0.000487033
0.000493002
0.000507162
0.000525252
0.000547654
0.000575527
0.000609292
0.000647775
0.000688234
0.000728461
0.000778914
0.000895814
0.00119996
0.00188566
0.00324811
0.00545515
0.00764675
0.00567711
0.000840997
0.000521223
0.000491991
0.000500053
0.000518675
0.000543087
0.000572891
0.000608216
0.000648303
0.000690759
0.000731514
0.00076792
0.000808069
0.000895451
0.00111952
0.00170347
0.00298875
0.00536369
0.00788929
0.00570175
0.000864759
0.000530405
0.000506047
0.000525321
0.000560043
0.000604382
0.000656769
0.000715965
0.000779558
0.000843279
0.000901065
0.00094827
0.000988757
0.0010579
0.00123962
0.00172003
0.00289021
0.00532494
0.00794811
0.00571072
0.000902129
0.000554438
0.000553862
0.000613336
0.000698915
0.000802576
0.000920906
0.0010504
0.00118544
0.00131867
0.00143987
0.00154238
0.00162245
0.00170741
0.001875
0.00228077
0.00325831
0.00552656
0.00760511
0.00564625
0.000990175
0.000632872
0.000740788
0.000946198
0.00119916
0.00148633
0.00179927
0.00212851
0.00245823
0.00277739
0.00306459
0.00331789
0.00351324
0.00368402
0.00385348
0.00418893
0.00490202
0.00659394
0.0072924
0.00555953
0.000995796
0.000870433
0.00145007
0.00220546
0.00298324
0.00377614
0.00457007
0.00535064
0.00607366
0.0067423
0.007306
0.00780743
0.00817234
0.00848208
0.00866411
0.00879635
0.00859273
0.00838966
0.00745455
0.00540183
0.000824001
0.00107185
0.00155598
0.00202958
0.00248551
0.0029181
0.00333338
0.00373499
0.00413353
0.00450326
0.00487606
0.00519211
0.00551712
0.00573736
0.00596137
0.00603153
0.00603364
0.00599945
0.00583363
0.00518195
)
;

boundaryField
{
    movingWall
    {
        Cmu             0.09;
        kappa           0.41;
        E               9.8;
        type            epsilonWallFunction;
        value           nonuniform List<scalar> 
20
(
0.000824001
0.00107185
0.00155598
0.00202958
0.00248551
0.0029181
0.00333338
0.00373499
0.00413353
0.00450326
0.00487606
0.00519211
0.00551712
0.00573736
0.00596137
0.00603153
0.00603364
0.00599945
0.00583363
0.00518195
)
;
    }
    fixedWalls
    {
        Cmu             0.09;
        kappa           0.41;
        E               9.8;
        type            epsilonWallFunction;
        value           nonuniform List<scalar> 
60
(
0.000174471
0.000295649
0.000429207
0.000531448
0.000607616
0.000663883
0.000705216
0.000735442
0.000757552
0.000773966
0.00078678
0.000797778
0.000809226
0.00082197
0.000840997
0.000864759
0.000902129
0.000990175
0.000995796
0.000824001
0.000182362
0.000291167
0.000379967
0.000656636
0.00153682
0.00285586
0.00375901
0.00423623
0.00469545
0.00504634
0.00530239
0.00550186
0.00561868
0.00567711
0.00570175
0.00571072
0.00564625
0.00555953
0.00540183
0.00518195
0.000174471
0.000291475
0.000386493
0.000446195
0.00048256
0.000505883
0.000523105
0.000538433
0.000553925
0.000569911
0.000585387
0.000598065
0.000604078
0.000605685
0.000605713
0.000583747
0.000531384
0.000434724
0.000285675
0.000182362
)
;
    }
    frontAndBack
    {
        type            empty;
    }
}


// ************************************************************************* //
