/*--------------------------------*- C++ -*----------------------------------*\
| =========                 |                                                 |
| \\      /  F ield         | OpenFOAM: The Open Source CFD Toolbox           |
|  \\    /   O peration     | Version:  5.0                                   |
|   \\  /    A nd           | Web:      www.OpenFOAM.org                      |
|    \\/     M anipulation  |                                                 |
\*---------------------------------------------------------------------------*/
FoamFile
{
    version     2.0;
    format      ascii;
    class       volScalarField;
    location    "1.5";
    object      k;
}
// * * * * * * * * * * * * * * * * * * * * * * * * * * * * * * * * * * * * * //

dimensions      [0 2 -2 0 0 0 0];

internalField   nonuniform List<scalar> 
400
(
5.38476e-05
9.02035e-05
0.00011973
0.000138283
0.000149587
0.000156843
0.000162208
0.000166993
0.000171835
0.000176834
0.000181676
0.000185635
0.000187511
0.000188017
0.000188097
0.00018131
0.000165002
0.000134782
8.82362e-05
5.63232e-05
9.15161e-05
0.000225341
0.000292726
0.000331689
0.000355884
0.00037182
0.000383578
0.000393805
0.00040403
0.000414845
0.000426078
0.000436885
0.00044585
0.000449865
0.000447744
0.000431908
0.000393125
0.000317566
0.000189662
9.0121e-05
0.000133118
0.000324819
0.000417261
0.000471041
0.000504708
0.000526715
0.000542252
0.000554541
0.000565258
0.000574808
0.000582628
0.000587042
0.000588304
0.000584274
0.000571206
0.000543072
0.000489755
0.000394913
0.000236028
0.000118618
0.000164994
0.000392496
0.000501314
0.000565263
0.000605882
0.000632724
0.000651587
0.000666045
0.000677911
0.000687517
0.000692969
0.000694427
0.000690558
0.000678139
0.00065672
0.000628392
0.000595667
0.000535822
0.000381616
0.000209432
0.00018876
0.000441365
0.000562376
0.000634229
0.000680477
0.000711535
0.00073369
0.000750812
0.000764832
0.000775592
0.000780228
0.000780157
0.000770826
0.000752892
0.000746984
0.000781366
0.000863994
0.000897895
0.000768213
0.000491758
0.000206328
0.000477098
0.000607636
0.000686008
0.00073708
0.00077197
0.000797417
0.000817551
0.000834294
0.000846283
0.00085064
0.000847761
0.000835474
0.000834419
0.000894775
0.00109309
0.00128867
0.00135016
0.00122785
0.000902898
0.000219235
0.000503219
0.000641195
0.000724915
0.000780083
0.000818339
0.000846792
0.000869728
0.000888834
0.000901218
0.000904711
0.000898866
0.000893635
0.000928503
0.00110353
0.00143113
0.00162939
0.00168626
0.00152483
0.00117742
0.00022867
0.000522149
0.000665737
0.000753632
0.000812055
0.000852998
0.000883809
0.000908792
0.000929225
0.000940629
0.000942232
0.000935207
0.000938139
0.00102145
0.0012883
0.0016681
0.00187446
0.00193694
0.00175027
0.00132464
0.000235562
0.000535669
0.000683217
0.000774064
0.000834752
0.000877492
0.000909747
0.000935731
0.000956053
0.00096531
0.000963991
0.000955105
0.000965486
0.00108588
0.00140341
0.00180879
0.0020769
0.00217178
0.00200085
0.00146773
0.000240664
0.000545182
0.000695204
0.000787766
0.000849654
0.000893224
0.000925965
0.000951935
0.000970793
0.000978049
0.000972607
0.000959962
0.000971224
0.00110474
0.00143563
0.00185773
0.00222386
0.00238424
0.00223774
0.00157562
0.000244629
0.000551877
0.000703059
0.000796178
0.00085828
0.000901858
0.000934385
0.000959724
0.000977026
0.000982693
0.000973755
0.000957287
0.000963953
0.00108719
0.00140412
0.00184202
0.00228768
0.00256688
0.00248146
0.0016553
0.000248017
0.000556785
0.000708043
0.000800778
0.000862413
0.000905621
0.000937829
0.000962699
0.000979434
0.000984942
0.000975619
0.000954931
0.000952256
0.00105126
0.00133799
0.00178202
0.00229814
0.0027033
0.00270684
0.00171693
0.000251538
0.000560966
0.000711446
0.000803272
0.000864416
0.000907805
0.000940723
0.00096652
0.000984465
0.000991204
0.000983231
0.000962155
0.000954781
0.00102431
0.0012615
0.00169291
0.00224818
0.00276662
0.00290075
0.00175296
0.000255457
0.000565239
0.000714717
0.000806073
0.000867987
0.000913153
0.000948638
0.000977514
0.000999101
0.00100986
0.00100596
0.000988317
0.000977725
0.0010272
0.00120887
0.00159888
0.0021711
0.0027826
0.00304642
0.00177089
0.000261341
0.000571317
0.000720134
0.000812794
0.000877979
0.00092839
0.00097059
0.0010072
0.00103735
0.00105732
0.00106264
0.00105368
0.00104374
0.00107376
0.0012092
0.00153522
0.00208073
0.00276143
0.00310902
0.0017784
0.000268718
0.000580599
0.000732047
0.000830488
0.000905219
0.000968273
0.00102539
0.00107855
0.00112657
0.00116531
0.00118955
0.00119723
0.00119637
0.00121469
0.001304
0.0015466
0.00203392
0.00272729
0.00311304
0.00178111
0.000280371
0.000600593
0.000761981
0.000878417
0.00097763
0.00106944
0.0011583
0.00124529
0.00132869
0.00140367
0.00146358
0.00150401
0.00152548
0.00154643
0.0016032
0.00175913
0.00209952
0.00271687
0.00296262
0.00176063
0.000307859
0.000647881
0.000850004
0.00102286
0.0011849
0.00134208
0.0014968
0.00164876
0.00179625
0.00193441
0.00205332
0.00214861
0.00221162
0.00225195
0.00228377
0.00235542
0.00251326
0.00285673
0.00275021
0.00173363
0.000309759
0.000699983
0.00108024
0.0014181
0.00171943
0.00199552
0.00225175
0.00249011
0.00270137
0.00288794
0.00304209
0.00317252
0.00326352
0.00333101
0.00336044
0.00335877
0.00328141
0.00312295
0.00265313
0.00168426
0.000256237
0.000333549
0.000484567
0.000632318
0.000774548
0.000909507
0.00103905
0.00116429
0.00128864
0.00140395
0.00152025
0.00161872
0.00172011
0.00178863
0.0018586
0.00188044
0.00188121
0.00187057
0.00181887
0.00161562
)
;

boundaryField
{
    movingWall
    {
        type            kqRWallFunction;
        value           nonuniform List<scalar> 
20
(
0.000256237
0.000333549
0.000484567
0.000632318
0.000774548
0.000909507
0.00103905
0.00116429
0.00128864
0.00140395
0.00152025
0.00161872
0.00172011
0.00178863
0.0018586
0.00188044
0.00188121
0.00187057
0.00181887
0.00161562
)
;
    }
    fixedWalls
    {
        type            kqRWallFunction;
        value           nonuniform List<scalar> 
60
(
5.38476e-05
9.15161e-05
0.000133118
0.000164994
0.00018876
0.000206328
0.000219235
0.00022867
0.000235562
0.000240664
0.000244629
0.000248017
0.000251538
0.000255457
0.000261341
0.000268718
0.000280371
0.000307859
0.000309759
0.000256237
5.63232e-05
9.0121e-05
0.000118618
0.000209432
0.000491758
0.000902898
0.00117742
0.00132464
0.00146773
0.00157562
0.0016553
0.00171693
0.00175296
0.00177089
0.0017784
0.00178111
0.00176063
0.00173363
0.00168426
0.00161562
5.38476e-05
9.02035e-05
0.00011973
0.000138283
0.000149587
0.000156843
0.000162208
0.000166993
0.000171835
0.000176834
0.000181676
0.000185635
0.000187511
0.000188017
0.000188097
0.00018131
0.000165002
0.000134782
8.82362e-05
5.63232e-05
)
;
    }
    frontAndBack
    {
        type            empty;
    }
}


// ************************************************************************* //
