/*--------------------------------*- C++ -*----------------------------------*\
| =========                 |                                                 |
| \\      /  F ield         | OpenFOAM: The Open Source CFD Toolbox           |
|  \\    /   O peration     | Version:  5.0                                   |
|   \\  /    A nd           | Web:      www.OpenFOAM.org                      |
|    \\/     M anipulation  |                                                 |
\*---------------------------------------------------------------------------*/
FoamFile
{
    version     2.0;
    format      ascii;
    class       volScalarField;
    location    "1.5";
    object      nut;
}
// * * * * * * * * * * * * * * * * * * * * * * * * * * * * * * * * * * * * * //

dimensions      [0 2 -1 0 0 0 0];

internalField   nonuniform List<scalar> 
400
(
1.49572e-06
2.5124e-06
3.33818e-06
3.85706e-06
4.1733e-06
4.37644e-06
4.5269e-06
4.6613e-06
4.79749e-06
4.93819e-06
5.07449e-06
5.18581e-06
5.23844e-06
5.25279e-06
5.25703e-06
5.06831e-06
4.61119e-06
3.7609e-06
2.45281e-06
1.56561e-06
2.54953e-06
1.67971e-05
2.40153e-05
2.75889e-05
2.97458e-05
3.12056e-05
3.23261e-05
3.33544e-05
3.44709e-05
3.57913e-05
3.73867e-05
3.9123e-05
4.06528e-05
4.12056e-05
4.04192e-05
3.75231e-05
3.21434e-05
2.34777e-05
1.03213e-05
2.51045e-06
3.71578e-06
2.96354e-05
4.52681e-05
5.31715e-05
5.7792e-05
6.07933e-05
6.29474e-05
6.46935e-05
6.62581e-05
6.76712e-05
6.87413e-05
6.88441e-05
6.76263e-05
6.42183e-05
5.79628e-05
4.88887e-05
3.82057e-05
2.53799e-05
1.11464e-05
3.3327e-06
4.61018e-06
3.7623e-05
5.98287e-05
7.16897e-05
7.86693e-05
8.31218e-05
8.6197e-05
8.84678e-05
9.01182e-05
9.09597e-05
9.01374e-05
8.71929e-05
8.13358e-05
7.1813e-05
5.93907e-05
4.60521e-05
3.52393e-05
2.68505e-05
1.52655e-05
6.01178e-06
5.27758e-06
4.32163e-05
7.02338e-05
8.52999e-05
9.42469e-05
9.98542e-05
0.000103513
0.00010587
0.000107026
0.000106468
0.000102898
9.61431e-05
8.48511e-05
6.96421e-05
5.49372e-05
4.45815e-05
4.06882e-05
3.94393e-05
2.86782e-05
1.4162e-05
5.7712e-06
4.72246e-05
7.77456e-05
9.53842e-05
0.000105965
0.000112523
0.000116594
0.000118832
0.000119195
0.000116683
0.000109945
9.87089e-05
8.25745e-05
6.57748e-05
5.46869e-05
5.55304e-05
5.71922e-05
5.59115e-05
4.47664e-05
2.56911e-05
6.13396e-06
5.00723e-05
8.31973e-05
0.000102853
0.000114761
0.000122079
0.000126402
0.000128336
0.000127656
0.000122883
0.000113004
9.78649e-05
7.97927e-05
6.47762e-05
6.24847e-05
7.19259e-05
7.34478e-05
7.09435e-05
5.59506e-05
3.31916e-05
6.39902e-06
5.20642e-05
8.7109e-05
0.000108313
0.000121261
0.000129153
0.000133588
0.000135093
0.000133285
0.000126344
0.000113965
9.67305e-05
7.84378e-05
6.80275e-05
7.33643e-05
8.71218e-05
8.84533e-05
8.42674e-05
6.61007e-05
3.72785e-05
6.59235e-06
5.34167e-05
8.98407e-05
0.000112197
0.000125926
0.000134224
0.00013867
0.000139736
0.000136897
0.000128327
0.000114483
9.66634e-05
7.96099e-05
7.34044e-05
8.33867e-05
9.91529e-05
0.000102333
9.55843e-05
7.7007e-05
4.12911e-05
6.73506e-06
5.42958e-05
9.16684e-05
0.000114846
0.00012913
0.000137701
0.000142125
0.000142858
0.000139261
0.000130136
0.000115942
9.84136e-05
8.22372e-05
7.81892e-05
8.99241e-05
0.000106233
0.000114665
0.000105513
8.61699e-05
4.4276e-05
6.84552e-06
5.48421e-05
9.28261e-05
0.000116556
0.000131213
0.000139985
0.000144437
0.000145058
0.000141212
0.000132041
0.000117758
0.000100771
8.5628e-05
8.1887e-05
9.36961e-05
0.000110868
0.000121315
0.000113976
9.46136e-05
4.65078e-05
6.93942e-06
5.51842e-05
9.35291e-05
0.000117598
0.000132488
0.000141367
0.000145859
0.000146507
0.000142869
0.000134557
0.000121702
0.000105865
9.14149e-05
8.69825e-05
9.74775e-05
0.00011449
0.000126333
0.000121988
0.000101349
4.82214e-05
7.03685e-06
5.54554e-05
9.39847e-05
0.000118207
0.000133163
0.000142171
0.000146872
0.000147874
0.000144984
0.000137937
0.000126988
0.000113183
0.00010052
9.48863e-05
0.00010217
0.000117788
0.000128647
0.000126219
0.000106195
4.92213e-05
7.14535e-06
5.57836e-05
9.43959e-05
0.000118616
0.000133697
0.000142877
0.00014789
0.000149425
0.000147447
0.00014169
0.000132332
0.000120678
0.000110455
0.000106006
0.000109607
0.000122014
0.000130608
0.000127743
0.000109231
4.97162e-05
7.3091e-06
5.63604e-05
9.48662e-05
0.000118901
0.000133757
0.000142835
0.000147993
0.000150112
0.000149388
0.000145657
0.000138928
0.00013012
0.000121334
0.000115882
0.000117545
0.000124523
0.000130372
0.000127952
0.000110269
4.99222e-05
7.5152e-06
5.71988e-05
9.5308e-05
0.000118164
0.000131683
0.000139613
0.00014408
0.000146229
0.000146523
0.000144928
0.000141335
0.000136041
0.000130282
0.000125525
0.000123455
0.000125158
0.000128819
0.000125716
0.000109735
4.99956e-05
7.84225e-06
5.85532e-05
9.43471e-05
0.000113226
0.000123074
0.000128255
0.00013112
0.00013287
0.000134032
0.000134473
0.000133891
0.000131994
0.000129088
0.000126057
0.000123371
0.000122112
0.000121756
0.000120206
0.00010387
4.94104e-05
8.61455e-06
5.96922e-05
8.7779e-05
9.9516e-05
0.000105373
0.000109065
0.000112065
0.000114942
0.000118128
0.000121256
0.000123818
0.000125227
0.000125301
0.000123891
0.000121813
0.0001192
0.000115969
0.000111388
9.33475e-05
4.8654e-05
8.67202e-06
5.06621e-05
7.24263e-05
8.20648e-05
8.91914e-05
9.4909e-05
9.98526e-05
0.000104297
0.000108134
0.000111329
0.000114
0.000116023
0.000117292
0.000117731
0.000117303
0.000115425
0.00011278
0.000104623
8.49839e-05
4.7263e-05
7.17133e-06
9.34173e-06
1.35814e-05
1.77299e-05
2.17231e-05
2.55126e-05
2.91497e-05
3.26643e-05
3.61563e-05
3.9393e-05
4.26584e-05
4.54197e-05
4.82664e-05
5.01846e-05
5.21516e-05
5.27635e-05
5.27883e-05
5.24902e-05
5.10396e-05
4.53343e-05
)
;

boundaryField
{
    movingWall
    {
        type            nutkWallFunction;
        Cmu             0.09;
        kappa           0.41;
        E               9.8;
        value           uniform 0;
    }
    fixedWalls
    {
        type            nutkWallFunction;
        Cmu             0.09;
        kappa           0.41;
        E               9.8;
        value           uniform 0;
    }
    frontAndBack
    {
        type            empty;
    }
}


// ************************************************************************* //
