/*--------------------------------*- C++ -*----------------------------------*\
| =========                 |                                                 |
| \\      /  F ield         | OpenFOAM: The Open Source CFD Toolbox           |
|  \\    /   O peration     | Version:  5.0                                   |
|   \\  /    A nd           | Web:      www.OpenFOAM.org                      |
|    \\/     M anipulation  |                                                 |
\*---------------------------------------------------------------------------*/
FoamFile
{
    version     2.0;
    format      ascii;
    class       volScalarField;
    location    "1.5";
    object      p;
}
// * * * * * * * * * * * * * * * * * * * * * * * * * * * * * * * * * * * * * //

dimensions      [0 2 -2 0 0 0 0];

internalField   nonuniform List<scalar> 
400
(
2.06166e-09
-8.689e-06
-7.72128e-06
2.81449e-06
2.47868e-05
5.98255e-05
0.000110187
0.000178947
0.00027034
0.000390142
0.000545699
0.000744571
0.000995818
0.0013152
0.00170212
0.0021262
0.00254462
0.00288047
0.00307444
0.0031179
8.61156e-06
-1.14031e-06
6.76207e-07
1.33943e-05
3.67506e-05
7.17377e-05
0.000120379
0.000185443
0.000270699
0.000381263
0.000523849
0.00070679
0.000941729
0.00124277
0.00161005
0.00203561
0.00247646
0.00284943
0.00307091
0.00312295
3.87291e-06
-1.15518e-05
-1.32158e-05
-1.30857e-06
2.09068e-05
5.29234e-05
9.61519e-05
0.000152796
0.000225957
0.000320111
0.000441683
0.000599787
0.00080805
0.00108372
0.00144168
0.00188791
0.0023813
0.00281183
0.00306405
0.00314098
-2.0518e-05
-4.44044e-05
-5.45103e-05
-4.85312e-05
-3.20228e-05
-7.53658e-06
2.51964e-05
6.74886e-05
0.000121619
0.000191455
0.0002831
0.000406371
0.000577756
0.000822118
0.00116735
0.00163306
0.00217198
0.00265116
0.00295173
0.00311494
-6.97718e-05
-0.00010178
-0.000122296
-0.000126186
-0.000119949
-0.000107883
-9.1088e-05
-6.94799e-05
-4.19756e-05
-5.85818e-06
4.36696e-05
0.00011544
0.000225861
0.000404603
0.000691503
0.00109758
0.00161765
0.00216256
0.00261474
0.00291048
-0.000143877
-0.000182305
-0.000212773
-0.000228308
-0.000235515
-0.000239922
-0.000244052
-0.000249417
-0.00025678
-0.000265807
-0.000274957
-0.000280813
-0.000276789
-0.000241768
-0.000122178
0.000142166
0.000599531
0.00123876
0.00191425
0.00227283
-0.000239846
-0.000282817
-0.000321964
-0.000349552
-0.00037197
-0.000395645
-0.000424571
-0.000462228
-0.00051201
-0.000577464
-0.000662967
-0.000776326
-0.000928306
-0.00110463
-0.00122125
-0.00115309
-0.000776824
-7.22622e-05
0.000769564
0.00114061
-0.000352851
-0.000398698
-0.000445054
-0.000484243
-0.00052237
-0.000566592
-0.000622388
-0.000695442
-0.000792384
-0.000921812
-0.00109608
-0.00133599
-0.0016679
-0.00207284
-0.0024299
-0.00253548
-0.00224385
-0.00156804
-0.000676515
-0.000246388
-0.00047727
-0.000524479
-0.000576438
-0.000625984
-0.00067898
-0.000743176
-0.000825423
-0.000933528
-0.00107742
-0.00127075
-0.00153357
-0.00189504
-0.00238999
-0.00298395
-0.0035133
-0.00373399
-0.00352791
-0.00293346
-0.00213837
-0.00163798
-0.000607275
-0.000654589
-0.000710258
-0.000768063
-0.000833659
-0.000915232
-0.0010207
-0.00115952
-0.00134412
-0.00159173
-0.00192822
-0.00238272
-0.00298736
-0.00369554
-0.00431979
-0.00461025
-0.00447863
-0.00397935
-0.00333415
-0.00281631
-0.000737566
-0.000783891
-0.000841039
-0.000904076
-0.000978602
-0.00107308
-0.00119607
-0.00135795
-0.00157237
-0.00185807
-0.00224045
-0.00274765
-0.00339793
-0.00414108
-0.00479161
-0.00511286
-0.00503964
-0.00462779
-0.00412471
-0.00357763
-0.000863994
-0.000908136
-0.00096412
-0.00102845
-0.00110706
-0.00120863
-0.00134192
-0.00151746
-0.00174875
-0.00205292
-0.00245257
-0.00297153
-0.00361103
-0.00432653
-0.00495309
-0.00527341
-0.00524017
-0.00486454
-0.00446715
-0.00387175
-0.000984489
-0.00102479
-0.00107618
-0.00113676
-0.00121374
-0.00131594
-0.00145196
-0.00163182
-0.00186773
-0.00217288
-0.00256926
-0.00306873
-0.00366397
-0.00431083
-0.00486926
-0.00516898
-0.00515846
-0.00471888
-0.00445423
-0.00369114
-0.00109913
-0.00113284
-0.001175
-0.00122551
-0.00129472
-0.00139124
-0.00152324
-0.00170008
-0.00193359
-0.00222447
-0.00260498
-0.00306944
-0.00360496
-0.00416481
-0.00464077
-0.00488735
-0.00482684
-0.0043229
-0.00419519
-0.0030837
-0.00121347
-0.00123487
-0.00126085
-0.00129384
-0.00134729
-0.00143218
-0.00155465
-0.0017223
-0.00194421
-0.00222725
-0.00258248
-0.0030073
-0.00348313
-0.00396075
-0.00434853
-0.00451504
-0.00437025
-0.00376299
-0.00365255
-0.00206554
-0.00133799
-0.00133222
-0.00133051
-0.00133704
-0.00136706
-0.00143411
-0.00154272
-0.00169891
-0.00190917
-0.00217946
-0.00251376
-0.00290532
-0.00333032
-0.00373542
-0.00403254
-0.00409122
-0.00380782
-0.00297917
-0.00272788
-0.00047676
-0.00150248
-0.0014338
-0.00138411
-0.00134341
-0.00134536
-0.00139118
-0.0014838
-0.00162766
-0.00182747
-0.00208663
-0.00240587
-0.00277295
-0.00315796
-0.00349666
-0.00369535
-0.00360236
-0.00308965
-0.00185023
-0.00115687
0.00264095
-0.00173464
-0.00153872
-0.00139956
-0.00130805
-0.00128493
-0.00131403
-0.00139363
-0.0015258
-0.00171538
-0.00196566
-0.00227552
-0.00262573
-0.00298013
-0.00325341
-0.00333286
-0.00300878
-0.00216889
-0.00028398
0.00162681
0.00905756
-0.00223225
-0.00178283
-0.0015583
-0.00142822
-0.00138514
-0.00140278
-0.00147187
-0.00159272
-0.00176898
-0.00200314
-0.00229698
-0.00262369
-0.00295238
-0.00317042
-0.00316888
-0.00264125
-0.00126529
0.00155934
0.00584585
0.0190299
-0.0018748
0.000411506
0.000462242
0.000316867
0.00021894
0.000120376
-2.43051e-05
-0.000222653
-0.000477312
-0.00078705
-0.00114843
-0.00154407
-0.0019184
-0.00218369
-0.00214737
-0.00161407
1.95826e-06
0.00378549
0.0108224
0.0249289
)
;

boundaryField
{
    movingWall
    {
        type            zeroGradient;
    }
    fixedWalls
    {
        type            zeroGradient;
    }
    frontAndBack
    {
        type            empty;
    }
}


// ************************************************************************* //
