/*--------------------------------*- C++ -*----------------------------------*\
| =========                 |                                                 |
| \\      /  F ield         | OpenFOAM: The Open Source CFD Toolbox           |
|  \\    /   O peration     | Version:  5.0                                   |
|   \\  /    A nd           | Web:      www.OpenFOAM.org                      |
|    \\/     M anipulation  |                                                 |
\*---------------------------------------------------------------------------*/
FoamFile
{
    version     2.0;
    format      ascii;
    class       surfaceScalarField;
    location    "1.5";
    object      phi;
}
// * * * * * * * * * * * * * * * * * * * * * * * * * * * * * * * * * * * * * //

dimensions      [0 3 -1 0 0 0 0];

internalField   nonuniform List<scalar> 
760
(
-2.38411e-08
2.38409e-08
-1.03495e-07
7.96539e-08
-2.18439e-07
1.14944e-07
-3.50158e-07
1.31719e-07
-4.90074e-07
1.39916e-07
-6.35465e-07
1.45391e-07
-7.8577e-07
1.50305e-07
-9.40481e-07
1.54711e-07
-1.09765e-06
1.57165e-07
-1.25253e-06
1.54883e-07
-1.39629e-06
1.43758e-07
-1.51449e-06
1.182e-07
-1.58728e-06
7.2794e-08
-1.59725e-06
9.96766e-09
-1.51147e-06
-8.57733e-08
-1.31077e-06
-2.00708e-07
-9.94322e-07
-3.16444e-07
-6.02608e-07
-3.91714e-07
-2.30947e-07
-3.71661e-07
-2.30947e-07
-7.71096e-08
1.00951e-07
-1.98411e-07
2.00956e-07
-3.41643e-07
2.58176e-07
-4.98989e-07
2.89064e-07
-6.6572e-07
3.06647e-07
-8.39116e-07
3.18787e-07
-1.01744e-06
3.2863e-07
-1.19875e-06
3.36025e-07
-1.37981e-06
3.38224e-07
-1.55505e-06
3.30119e-07
-1.71575e-06
3.04457e-07
-1.8499e-06
2.52352e-07
-1.94153e-06
1.64425e-07
-1.96417e-06
3.26066e-08
-1.89428e-06
-1.55662e-07
-1.70186e-06
-3.93133e-07
-1.36822e-06
-6.50076e-07
-9.04623e-07
-8.55316e-07
-3.83042e-07
-8.93242e-07
-6.13989e-07
-1.13342e-07
2.14292e-07
-2.50618e-07
3.38232e-07
-3.97653e-07
4.05211e-07
-5.54918e-07
4.46329e-07
-7.21638e-07
4.73367e-07
-8.96445e-07
4.93593e-07
-1.07801e-06
5.10194e-07
-1.26478e-06
5.22796e-07
-1.45438e-06
5.27823e-07
-1.64284e-06
5.18583e-07
-1.82384e-06
4.85452e-07
-1.9878e-06
4.16309e-07
-2.11927e-06
2.95897e-07
-2.19429e-06
1.07633e-07
-2.1806e-06
-1.69351e-07
-2.02862e-06
-5.45114e-07
-1.68791e-06
-9.9079e-07
-1.14618e-06
-1.39705e-06
-4.94638e-07
-1.54478e-06
-1.10863e-06
-1.29368e-07
3.4366e-07
-2.73892e-07
4.82757e-07
-4.21757e-07
5.53076e-07
-5.7615e-07
6.00722e-07
-7.39009e-07
6.36227e-07
-9.10893e-07
6.65477e-07
-1.0919e-06
6.91197e-07
-1.28196e-06
7.1286e-07
-1.48069e-06
7.26552e-07
-1.68686e-06
7.24754e-07
-1.89768e-06
6.96275e-07
-2.10725e-06
6.25873e-07
-2.30297e-06
4.91618e-07
-2.45865e-06
2.63319e-07
-2.52969e-06
-9.83162e-08
-2.43058e-06
-6.44226e-07
-2.07713e-06
-1.34424e-06
-1.45565e-06
-2.01852e-06
-6.70746e-07
-2.32969e-06
-1.77937e-06
-1.32674e-07
4.76334e-07
-2.78314e-07
6.28397e-07
-4.24999e-07
6.99761e-07
-5.75844e-07
7.51567e-07
-7.34044e-07
7.94426e-07
-9.01794e-07
8.33227e-07
-1.08092e-06
8.70325e-07
-1.27335e-06
9.05292e-07
-1.48121e-06
9.34412e-07
-1.70662e-06
9.50158e-07
-1.95118e-06
9.40841e-07
-2.21407e-06
8.88762e-07
-2.48761e-06
7.65152e-07
-2.74269e-06
5.18407e-07
-2.90478e-06
6.37731e-08
-2.84738e-06
-7.01627e-07
-2.49053e-06
-1.7011e-06
-1.84966e-06
-2.65939e-06
-9.7459e-07
-3.20476e-06
-2.75396e-06
-1.28787e-07
6.05121e-07
-2.70995e-07
7.70605e-07
-4.13912e-07
8.42678e-07
-5.5973e-07
8.97385e-07
-7.11928e-07
9.46624e-07
-8.73758e-07
9.95058e-07
-1.04851e-06
1.04508e-06
-1.23995e-06
1.09673e-06
-1.45258e-06
1.14704e-06
-1.69176e-06
1.18934e-06
-1.96334e-06
1.21242e-06
-2.27108e-06
1.19651e-06
-2.60774e-06
1.10181e-06
-2.92733e-06
8.38001e-07
-3.10855e-06
2.4499e-07
-3.04468e-06
-7.655e-07
-2.71723e-06
-2.02854e-06
-2.12268e-06
-3.25394e-06
-1.2271e-06
-4.10034e-06
-3.98106e-06
-1.20854e-07
7.25975e-07
-2.56229e-07
9.0598e-07
-3.92637e-07
9.79086e-07
-5.31132e-07
1.03588e-06
-6.74898e-07
1.09039e-06
-8.27596e-07
1.14776e-06
-9.93351e-07
1.21083e-06
-1.17707e-06
1.28045e-06
-1.38474e-06
1.35472e-06
-1.62377e-06
1.42836e-06
-1.90218e-06
1.49083e-06
-2.22371e-06
1.51804e-06
-2.5715e-06
1.4496e-06
-2.87343e-06
1.13993e-06
-3.00202e-06
3.73585e-07
-2.90096e-06
-8.66567e-07
-2.60586e-06
-2.32363e-06
-2.08927e-06
-3.77053e-06
-1.23505e-06
-4.95457e-06
-5.21611e-06
-1.10582e-07
8.36557e-07
-2.36606e-07
1.032e-06
-3.63934e-07
1.10641e-06
-4.9241e-07
1.16436e-06
-6.24513e-07
1.22249e-06
-7.63682e-07
1.28693e-06
-9.14082e-07
1.36123e-06
-1.08073e-06
1.44709e-06
-1.26967e-06
1.54366e-06
-1.48818e-06
1.64687e-06
-1.7427e-06
1.74535e-06
-2.03149e-06
1.80683e-06
-2.32597e-06
1.74407e-06
-2.54567e-06
1.35963e-06
-2.59617e-06
4.24093e-07
-2.48332e-06
-9.7942e-07
-2.23831e-06
-2.56864e-06
-1.81059e-06
-4.19824e-06
-1.07719e-06
-5.68797e-06
-6.2933e-06
-9.91519e-08
9.35709e-07
-2.14072e-07
1.14692e-06
-3.30149e-07
1.22249e-06
-4.4592e-07
1.28013e-06
-5.62855e-07
1.33943e-06
-6.83638e-07
1.40771e-06
-8.11719e-07
1.48931e-06
-9.51167e-07
1.58654e-06
-1.10662e-06
1.69912e-06
-1.28293e-06
1.82317e-06
-1.4825e-06
1.94492e-06
-1.69601e-06
2.02034e-06
-1.89248e-06
1.94054e-06
-2.01011e-06
1.47727e-06
-2.01395e-06
4.27932e-07
-1.93147e-06
-1.0619e-06
-1.7725e-06
-2.72761e-06
-1.47861e-06
-4.49213e-06
-9.13941e-07
-6.25264e-06
-7.20724e-06
-8.75991e-08
1.02331e-06
-1.90522e-07
1.24985e-06
-2.93794e-07
1.32576e-06
-3.94554e-07
1.38089e-06
-4.93092e-07
1.43797e-06
-5.91016e-07
1.50563e-06
-6.90561e-07
1.58886e-06
-7.94183e-07
1.69016e-06
-9.04183e-07
1.80912e-06
-1.02187e-06
1.94087e-06
-1.14546e-06
2.06851e-06
-1.2598e-06
2.13468e-06
-1.34693e-06
2.02767e-06
-1.38e-06
1.51034e-06
-1.3665e-06
4.14431e-07
-1.33266e-06
-1.09575e-06
-1.26953e-06
-2.79074e-06
-1.11703e-06
-4.64464e-06
-7.67606e-07
-6.60206e-06
-7.97485e-06
-7.71075e-08
1.10042e-06
-1.68205e-07
1.34094e-06
-2.57847e-07
1.41541e-06
-3.41874e-07
1.46491e-06
-4.19439e-07
1.51553e-06
-4.9105e-07
1.57724e-06
-5.57641e-07
1.65545e-06
-6.19949e-07
1.75247e-06
-6.77932e-07
1.8671e-06
-7.29548e-07
1.99248e-06
-7.68011e-07
2.10697e-06
-7.83637e-07
2.1503e-06
-7.72361e-07
2.0164e-06
-7.43703e-07
1.48168e-06
-7.3389e-07
4.04618e-07
-7.60796e-07
-1.06884e-06
-7.97009e-07
-2.75453e-06
-7.75931e-07
-4.66572e-06
-5.96286e-07
-6.78171e-06
-8.57114e-06
-6.90541e-08
1.16947e-06
-1.49717e-07
1.42161e-06
-2.25689e-07
1.49138e-06
-2.91804e-07
1.53103e-06
-3.46452e-07
1.57018e-06
-3.89372e-07
1.62016e-06
-4.20502e-07
1.68658e-06
-4.39221e-07
1.77119e-06
-4.43578e-07
1.87146e-06
-4.29334e-07
1.97824e-06
-3.90279e-07
2.06792e-06
-3.23604e-07
2.08363e-06
-2.34269e-07
1.92706e-06
-1.649e-07
1.41231e-06
-1.65939e-07
4.05657e-07
-2.52899e-07
-9.81879e-07
-3.85706e-07
-2.62172e-06
-4.789e-07
-4.57252e-06
-4.59897e-07
-6.80071e-06
-9.03103e-06
-6.59959e-08
1.23547e-06
-1.38493e-07
1.4941e-06
-2.0101e-07
1.55389e-06
-2.48003e-07
1.57802e-06
-2.77925e-07
1.6001e-06
-2.90391e-07
1.63263e-06
-2.8496e-07
1.68115e-06
-2.60472e-07
1.7467e-06
-2.14489e-07
1.82547e-06
-1.42315e-07
1.90606e-06
-3.96422e-08
1.96524e-06
9.03862e-08
1.9536e-06
2.33464e-07
1.78399e-06
3.33306e-07
1.31247e-06
3.20033e-07
4.1893e-07
1.84528e-07
-8.46375e-07
-1.74184e-08
-2.41977e-06
-2.2436e-07
-4.36558e-06
-3.39996e-07
-6.68507e-06
-9.37103e-06
-6.96382e-08
1.3051e-06
-1.37797e-07
1.56226e-06
-1.86913e-07
1.60301e-06
-2.12474e-07
1.60358e-06
-2.1512e-07
1.60275e-06
-1.95128e-07
1.61264e-06
-1.52339e-07
1.63836e-06
-8.58047e-08
1.68017e-06
6.72609e-09
1.73294e-06
1.27268e-07
1.78552e-06
2.78247e-07
1.81427e-06
4.53591e-07
1.77826e-06
6.29307e-07
1.60827e-06
7.45186e-07
1.19659e-06
7.26332e-07
4.37784e-07
5.5694e-07
-6.76983e-07
2.81105e-07
-2.14394e-06
-2.50023e-08
-4.05947e-06
-2.18849e-07
-6.49123e-06
-9.58988e-06
-8.88361e-08
1.39394e-06
-1.53241e-07
1.62667e-06
-1.83753e-07
1.63352e-06
-1.83077e-07
1.60291e-06
-1.54113e-07
1.57378e-06
-9.81827e-08
1.55671e-06
-1.60939e-08
1.55627e-06
9.20783e-08
1.57199e-06
2.27116e-07
1.59791e-06
3.90168e-07
1.62247e-06
5.78923e-07
1.62551e-06
7.83505e-07
1.57367e-06
9.77031e-07
1.41474e-06
1.10421e-06
1.06941e-06
1.09107e-06
4.50923e-07
9.10245e-07
-4.96156e-07
5.91577e-07
-1.82527e-06
2.28591e-07
-3.69649e-06
-4.20161e-08
-6.22062e-06
-9.63189e-06
-1.23627e-07
1.51757e-06
-1.84433e-07
1.68747e-06
-1.881e-07
1.63719e-06
-1.50043e-07
1.56485e-06
-7.92678e-08
1.50301e-06
2.01252e-08
1.45731e-06
1.46472e-07
1.42992e-06
2.9962e-07
1.41885e-06
4.7932e-07
1.41821e-06
6.83986e-07
1.4178e-06
9.08026e-07
1.40147e-06
1.13857e-06
1.34313e-06
1.34812e-06
1.2052e-06
1.48829e-06
9.29243e-07
1.49151e-06
4.47707e-07
1.31679e-06
-3.21437e-07
9.66618e-07
-1.4751e-06
5.25611e-07
-3.25548e-06
1.21246e-07
-5.81625e-06
-9.51065e-06
-2.16052e-07
1.73362e-06
-2.31023e-07
1.70244e-06
-1.70366e-07
1.57653e-06
-6.94197e-08
1.4639e-06
6.2187e-08
1.3714e-06
2.20225e-07
1.29927e-06
4.04247e-07
1.2459e-06
6.14399e-07
1.2087e-06
8.49086e-07
1.18352e-06
1.10428e-06
1.16261e-06
1.37136e-06
1.13439e-06
1.63606e-06
1.07843e-06
1.87075e-06
9.70502e-07
2.03463e-06
7.65362e-07
2.06556e-06
4.16772e-07
1.90884e-06
-1.64712e-07
1.52153e-06
-1.08779e-06
9.56518e-07
-2.69047e-06
3.3108e-07
-5.19082e-06
-9.17957e-06
-3.02086e-07
2.0357e-06
-2.09169e-07
1.60953e-06
-2.29159e-08
1.39028e-06
1.9476e-07
1.24623e-06
4.33732e-07
1.13243e-06
6.92844e-07
1.04016e-06
9.70645e-07
9.681e-07
1.26548e-06
9.13864e-07
1.57483e-06
8.74167e-07
1.89544e-06
8.41994e-07
2.2182e-06
8.11636e-07
2.53097e-06
7.65662e-07
2.80568e-06
6.9579e-07
3.00892e-06
5.62124e-07
3.07584e-06
3.49845e-07
2.9727e-06
-6.15669e-08
2.54362e-06
-6.58715e-07
1.80321e-06
-1.95006e-06
7.88624e-07
-4.17623e-06
-8.39094e-06
-1.70816e-07
2.20652e-06
1.71807e-07
1.2669e-06
6.02426e-07
9.59661e-07
1.04228e-06
8.06378e-07
1.47472e-06
6.99981e-07
1.9019e-06
6.12989e-07
2.32541e-06
5.44588e-07
2.74432e-06
4.94957e-07
3.15851e-06
4.59972e-07
3.56869e-06
4.31818e-07
3.96603e-06
4.1429e-07
4.34856e-06
3.83138e-07
4.68223e-06
3.62117e-07
4.96024e-06
2.84113e-07
5.08945e-06
2.20635e-07
5.01536e-06
1.25297e-08
4.66912e-06
-3.12479e-07
3.81505e-06
-1.09598e-06
2.13326e-06
-2.49445e-06
-6.25768e-06
2.20652e-06
3.47342e-06
4.43309e-06
5.23946e-06
5.93944e-06
6.55243e-06
7.09702e-06
7.59198e-06
8.05195e-06
8.48377e-06
8.89806e-06
9.2812e-06
9.64331e-06
9.92743e-06
1.01481e-05
1.01606e-05
9.84811e-06
8.75213e-06
6.25768e-06
)
;

boundaryField
{
    movingWall
    {
        type            calculated;
        value           uniform 0;
    }
    fixedWalls
    {
        type            calculated;
        value           uniform 0;
    }
    frontAndBack
    {
        type            empty;
        value           nonuniform 0();
    }
}


// ************************************************************************* //
