/*--------------------------------*- C++ -*----------------------------------*\
| =========                 |                                                 |
| \\      /  F ield         | OpenFOAM: The Open Source CFD Toolbox           |
|  \\    /   O peration     | Version:  5.0                                   |
|   \\  /    A nd           | Web:      www.OpenFOAM.org                      |
|    \\/     M anipulation  |                                                 |
\*---------------------------------------------------------------------------*/
FoamFile
{
    version     2.0;
    format      ascii;
    class       volVectorField;
    location    "1.5";
    object      U;
}
// * * * * * * * * * * * * * * * * * * * * * * * * * * * * * * * * * * * * * //

dimensions      [0 1 -1 0 0 0 0];

internalField   nonuniform List<vector> 
400
(
(-2.62005e-05 3.04861e-05 0)
(-0.00101452 0.000632797 0)
(-0.00313338 0.00107017 0)
(-0.00565269 0.00126128 0)
(-0.00839368 0.00134459 0)
(-0.0112564 0.00140201 0)
(-0.0142208 0.001461 0)
(-0.0172838 0.00152395 0)
(-0.0204256 0.001576 0)
(-0.0235803 0.00158514 0)
(-0.0266147 0.00149963 0)
(-0.029337 0.0012428 0)
(-0.0313107 0.000751177 0)
(-0.0320886 0.000216105 0)
(-0.0314194 -0.000938243 0)
(-0.0284431 -0.00217441 0)
(-0.0231684 -0.0033688 0)
(-0.0159723 -0.00395511 0)
(-0.00800723 -0.00327829 0)
(-0.00182729 -0.00174897 0)
(-0.000622923 0.00101864 0)
(-0.00261557 0.00272555 0)
(-0.00531093 0.00374348 0)
(-0.00835458 0.00425343 0)
(-0.0116208 0.00451693 0)
(-0.0150349 0.00469111 0)
(-0.0185637 0.00483691 0)
(-0.0221766 0.00495377 0)
(-0.0258266 0.00499655 0)
(-0.0294298 0.0048812 0)
(-0.0328457 0.0044892 0)
(-0.0358696 0.003672 0)
(-0.0382056 0.00228422 0)
(-0.039427 0.000217318 0)
(-0.0390123 -0.00263006 0)
(-0.0363764 -0.00613875 0)
(-0.0310262 -0.0096868 0)
(-0.0229894 -0.0121006 0)
(-0.0129185 -0.0118494 0)
(-0.00317271 -0.0076962 0)
(-0.00112824 0.00309627 0)
(-0.00361152 0.00536118 0)
(-0.0064096 0.0066284 0)
(-0.00946723 0.00736811 0)
(-0.0127267 0.00782121 0)
(-0.0161521 0.00814213 0)
(-0.0197248 0.00839729 0)
(-0.0234206 0.00858174 0)
(-0.027204 0.00863058 0)
(-0.0310159 0.00842362 0)
(-0.0347567 0.00779115 0)
(-0.0382755 0.00652616 0)
(-0.0413266 0.00439131 0)
(-0.0435153 0.00114157 0)
(-0.0442612 -0.00344197 0)
(-0.0426764 -0.0093177 0)
(-0.0377096 -0.015855 0)
(-0.0288622 -0.0214167 0)
(-0.016748 -0.0230882 0)
(-0.0038758 -0.016366 0)
(-0.00135152 0.00555836 0)
(-0.00406882 0.00818854 0)
(-0.00690613 0.00956696 0)
(-0.00992357 0.0104634 0)
(-0.0131065 0.0110925 0)
(-0.0164574 0.0115834 0)
(-0.0199886 0.011995 0)
(-0.0237032 0.0123176 0)
(-0.0275997 0.0124747 0)
(-0.0316642 0.0123224 0)
(-0.0358644 0.0116507 0)
(-0.0401283 0.010189 0)
(-0.0442846 0.00757588 0)
(-0.0479749 0.00336122 0)
(-0.0504836 -0.00295538 0)
(-0.0504148 -0.011678 0)
(-0.0458029 -0.0224888 0)
(-0.0361199 -0.0329554 0)
(-0.0222766 -0.0374104 0)
(-0.00498508 -0.0268862 0)
(-0.00140072 0.00819237 0)
(-0.00417249 0.0111083 0)
(-0.00699946 0.0125279 0)
(-0.00995881 0.0135273 0)
(-0.0130513 0.0143131 0)
(-0.0163064 0.0149899 0)
(-0.0197685 0.0156066 0)
(-0.023477 0.0161521 0)
(-0.0274741 0.0165479 0)
(-0.0318022 0.0166405 0)
(-0.0365099 0.0161977 0)
(-0.0416226 0.0148932 0)
(-0.0470912 0.0122416 0)
(-0.0526306 0.00749669 0)
(-0.0572065 -0.000536861 0)
(-0.0588073 -0.0131778 0)
(-0.054161 -0.0299916 0)
(-0.0442835 -0.0463298 0)
(-0.0297411 -0.0542423 0)
(-0.00854001 -0.0421291 0)
(-0.00135811 0.0108138 0)
(-0.00406486 0.0139994 0)
(-0.00682515 0.0154368 0)
(-0.00969257 0.0165058 0)
(-0.012669 0.0174297 0)
(-0.0157979 0.0183009 0)
(-0.0191483 0.0191648 0)
(-0.0227923 0.0200156 0)
(-0.0268122 0.0207839 0)
(-0.0313046 0.0213237 0)
(-0.0363924 0.0214035 0)
(-0.0421913 0.0206538 0)
(-0.0487766 0.0184233 0)
(-0.0558145 0.0133654 0)
(-0.0615946 0.0030214 0)
(-0.062887 -0.0147917 0)
(-0.0585529 -0.0379228 0)
(-0.0490178 -0.0595914 0)
(-0.0341831 -0.0726449 0)
(-0.0141405 -0.0661062 0)
(-0.00126752 0.0133161 0)
(-0.0038323 0.0167853 0)
(-0.00647063 0.0182413 0)
(-0.00919964 0.0193607 0)
(-0.0120155 0.0204031 0)
(-0.0149645 0.0214645 0)
(-0.0181274 0.0225955 0)
(-0.0215963 0.0238034 0)
(-0.0254775 0.0250377 0)
(-0.0299029 0.0261764 0)
(-0.0350315 0.0270016 0)
(-0.041029 0.0270804 0)
(-0.0479837 0.0254377 0)
(-0.0552796 0.0197306 0)
(-0.0603105 0.00616857 0)
(-0.0604529 -0.0168836 0)
(-0.0558186 -0.0446326 0)
(-0.047262 -0.071525 0)
(-0.033214 -0.0914741 0)
(-0.0167952 -0.0939361 0)
(-0.00115108 0.0156354 0)
(-0.00352454 0.019408 0)
(-0.00599246 0.0208894 0)
(-0.00853276 0.0220433 0)
(-0.0111316 0.0231782 0)
(-0.0138275 0.0244057 0)
(-0.0166995 0.0257892 0)
(-0.0198411 0.0273535 0)
(-0.0233594 0.029071 0)
(-0.0273873 0.0308476 0)
(-0.0320662 0.0324661 0)
(-0.0375275 0.0333622 0)
(-0.0437667 0.0320423 0)
(-0.0498352 0.0250223 0)
(-0.0530771 0.00782189 0)
(-0.0517507 -0.0190735 0)
(-0.0478028 -0.0500016 0)
(-0.0408474 -0.0812489 0)
(-0.0284581 -0.108227 0)
(-0.0152209 -0.116856 0)
(-0.00102325 0.0177354 0)
(-0.00317671 0.0218253 0)
(-0.00543559 0.0233333 0)
(-0.00774038 0.0244987 0)
(-0.0100626 0.0256861 0)
(-0.012425 0.0270295 0)
(-0.0148921 0.0286083 0)
(-0.0175414 0.0304634 0)
(-0.0204569 0.0325845 0)
(-0.0237362 0.0348946 0)
(-0.0274612 0.0371415 0)
(-0.0316622 0.0385567 0)
(-0.0362444 0.0371095 0)
(-0.040227 0.0284606 0)
(-0.0415122 0.00835168 0)
(-0.0399315 -0.0209307 0)
(-0.037336 -0.0537919 0)
(-0.0326495 -0.088056 0)
(-0.024191 -0.121303 0)
(-0.0113437 -0.136906 0)
(-0.000898075 0.0196065 0)
(-0.00281929 0.0240082 0)
(-0.00484577 0.0255346 0)
(-0.00687748 0.0266756 0)
(-0.0088694 0.027857 0)
(-0.0108235 0.0292389 0)
(-0.0127822 0.030915 0)
(-0.0147949 0.0329355 0)
(-0.0169087 0.0352956 0)
(-0.019163 0.0379102 0)
(-0.0215832 0.0404657 0)
(-0.0240387 0.0419704 0)
(-0.026491 0.040054 0)
(-0.0282664 0.0300501 0)
(-0.0282489 0.00832322 0)
(-0.0270954 -0.0219459 0)
(-0.0260554 -0.0557795 0)
(-0.0237418 -0.0922737 0)
(-0.0195788 -0.129892 0)
(-0.00944012 -0.153601 0)
(-0.000789107 0.0212553 0)
(-0.00248922 0.025949 0)
(-0.00427606 0.0274686 0)
(-0.00600971 0.0285327 0)
(-0.00762886 0.0296317 0)
(-0.00911529 0.0309523 0)
(-0.010488 0.0325993 0)
(-0.0117671 0.034623 0)
(-0.0129602 0.0370101 0)
(-0.0140527 0.0396475 0)
(-0.0150178 0.0421652 0)
(-0.0155663 0.0432738 0)
(-0.0159378 0.0408872 0)
(-0.0157926 0.0302258 0)
(-0.0150721 0.00823317 0)
(-0.0147763 -0.021834 0)
(-0.0154325 -0.0558169 0)
(-0.0154801 -0.0937095 0)
(-0.015168 -0.134667 0)
(-0.00665239 -0.166564 0)
(-0.000710065 0.0227278 0)
(-0.00222988 0.0276658 0)
(-0.00378752 0.0291274 0)
(-0.00521019 0.0300418 0)
(-0.00642453 0.0309654 0)
(-0.00739914 0.0321114 0)
(-0.00813602 0.033591 0)
(-0.00863305 0.0354468 0)
(-0.00886843 0.0376438 0)
(-0.00878495 0.0400245 0)
(-0.00827943 0.0421185 0)
(-0.00728613 0.0427561 0)
(-0.00580949 0.0398849 0)
(-0.00416654 0.0293027 0)
(-0.00312768 0.00824772 0)
(-0.00380026 -0.0205813 0)
(-0.00623118 -0.054041 0)
(-0.00823316 -0.0927973 0)
(-0.0115366 -0.136238 0)
(-0.00467325 -0.17663 0)
(-0.000699824 0.0240591 0)
(-0.00210653 0.0291886 0)
(-0.00345221 0.0305133 0)
(-0.00455235 0.0311813 0)
(-0.00532916 0.0318233 0)
(-0.00575392 0.0326776 0)
(-0.00582378 0.0338576 0)
(-0.00552788 0.0353924 0)
(-0.00483331 0.0372189 0)
(-0.00367098 0.0391289 0)
(-0.00195136 0.0406491 0)
(0.00036315 0.0407224 0)
(0.00315068 0.0374538 0)
(0.00576135 0.0275653 0)
(0.00696783 0.00841492 0)
(0.0055699 -0.0182822 0)
(0.00152268 -0.0505851 0)
(-0.00173126 -0.0896148 0)
(-0.00858933 -0.135191 0)
(-0.00249591 -0.184369 0)
(-0.000764993 0.0254811 0)
(-0.00217882 0.0305972 0)
(-0.00333945 0.0316414 0)
(-0.00408773 0.0319302 0)
(-0.00437277 0.032166 0)
(-0.00419966 0.032616 0)
(-0.00357093 0.0333821 0)
(-0.0024818 0.0344777 0)
(-0.000910421 0.0358129 0)
(0.00120394 0.0371586 0)
(0.00391163 0.0380444 0)
(0.00717831 0.0375682 0)
(0.0107884 0.0341443 0)
(0.0139288 0.0253086 0)
(0.0152307 0.0087255 0)
(0.0134301 -0.0151884 0)
(0.00835306 -0.045748 0)
(0.00447324 -0.0845399 0)
(-0.00626971 -0.132323 0)
(0.00026487 -0.19036 0)
(-0.00108352 0.0269198 0)
(-0.00261045 0.0318998 0)
(-0.00350921 0.0324567 0)
(-0.00377782 0.0321938 0)
(-0.00350046 0.0319242 0)
(-0.00264025 0.0318688 0)
(-0.00125677 0.0321359 0)
(0.000643153 0.0327224 0)
(0.00307049 0.0335151 0)
(0.00604708 0.0342819 0)
(0.00956717 0.0345801 0)
(0.0135281 0.0336687 0)
(0.0176172 0.0303484 0)
(0.0210688 0.0227623 0)
(0.0225012 0.00899735 0)
(0.0206977 -0.0116922 0)
(0.0151012 -0.0398685 0)
(0.0108568 -0.0780378 0)
(-0.00428369 -0.127875 0)
(0.00416324 -0.194974 0)
(-0.00152151 0.0293305 0)
(-0.00341582 0.0332425 0)
(-0.00394012 0.0328829 0)
(-0.00351765 0.0318744 0)
(-0.00243101 0.0309884 0)
(-0.000723209 0.0303727 0)
(0.00154145 0.0300994 0)
(0.00434096 0.0301492 0)
(0.00767161 0.0304022 0)
(0.0115199 0.0306333 0)
(0.0158223 0.0304721 0)
(0.0204121 0.0293254 0)
(0.024918 0.0263052 0)
(0.028632 0.020067 0)
(0.030319 0.00906912 0)
(0.0288459 -0.00819626 0)
(0.0229967 -0.0333405 0)
(0.0186759 -0.0703736 0)
(-0.00192465 -0.122333 0)
(0.00982404 -0.197564 0)
(-0.00301416 0.031792 0)
(-0.00517352 0.0342218 0)
(-0.00411814 0.0324971 0)
(-0.00256804 0.0306886 0)
(-0.000204083 0.029135 0)
(0.00270336 0.0279586 0)
(0.00612579 0.0271542 0)
(0.0100653 0.0266667 0)
(0.0145295 0.0263856 0)
(0.0194425 0.0261407 0)
(0.0246853 0.0256531 0)
(0.0300508 0.0244673 0)
(0.0351249 0.0219706 0)
(0.0392996 0.0171532 0)
(0.0414137 0.00883414 0)
(0.0406035 -0.00481701 0)
(0.0344883 -0.0258511 0)
(0.0301855 -0.0602567 0)
(0.0013125 -0.113054 0)
(0.0182772 -0.194303 0)
(-0.00513621 0.0392214 0)
(-0.00600832 0.0348042 0)
(-0.00240565 0.0313458 0)
(0.00155023 0.0287099 0)
(0.00616699 0.0265681 0)
(0.0111716 0.024845 0)
(0.0165532 0.0235014 0)
(0.022299 0.0224902 0)
(0.0283409 0.0217416 0)
(0.0346528 0.0211076 0)
(0.0410851 0.0204177 0)
(0.0474881 0.0193117 0)
(0.0533767 0.0174719 0)
(0.0583474 0.0141052 0)
(0.0610691 0.00858527 0)
(0.061423 -0.00102132 0)
(0.0552815 -0.0167609 0)
(0.0501824 -0.0465701 0)
(0.0107367 -0.0956634 0)
(0.0341482 -0.174659 0)
(-0.0042828 0.037194 0)
(-0.00124696 0.0224346 0)
(0.00765399 0.0182943 0)
(0.0163822 0.0159055 0)
(0.0251529 0.0139462 0)
(0.0337806 0.0122837 0)
(0.0422953 0.0110127 0)
(0.0507458 0.010103 0)
(0.059049 0.0095018 0)
(0.0673069 0.00907782 0)
(0.0753116 0.00876073 0)
(0.0831806 0.00826337 0)
(0.0902081 0.00751501 0)
(0.0965283 0.0058705 0)
(0.100398 0.0032967 0)
(0.101654 -0.00236321 0)
(0.0964398 -0.0108328 0)
(0.0902549 -0.031802 0)
(0.04495 -0.06805 0)
(0.0681678 -0.1323 0)
(0.0474332 0.0563589 0)
(0.0525843 0.0375648 0)
(0.0773457 0.0280529 0)
(0.0975494 0.0231311 0)
(0.112704 0.0200985 0)
(0.125472 0.0177481 0)
(0.136745 0.0158316 0)
(0.147163 0.014376 0)
(0.156519 0.0132573 0)
(0.165574 0.0122697 0)
(0.173635 0.0116615 0)
(0.181757 0.010628 0)
(0.188629 0.0103357 0)
(0.195275 0.00839461 0)
(0.199914 0.00811395 0)
(0.202721 0.00362879 0)
(0.199655 0.000852758 0)
(0.190237 -0.00659924 0)
(0.147931 -0.0196478 0)
(0.143059 -0.110289 0)
)
;

boundaryField
{
    movingWall
    {
        type            fixedValue;
        value           uniform (1 0 0);
    }
    fixedWalls
    {
        type            noSlip;
    }
    frontAndBack
    {
        type            empty;
    }
}


// ************************************************************************* //
