/*--------------------------------*- C++ -*----------------------------------*\
  =========                 |
  \\      /  F ield         | OpenFOAM: The Open Source CFD Toolbox
   \\    /   O peration     | Website:  https://openfoam.org
    \\  /    A nd           | Version:  6
     \\/     M anipulation  |
\*---------------------------------------------------------------------------*/
FoamFile
{
    version     2.0;
    format      ascii;
    class       volScalarField;
    location    "0.3";
    object      Co;
}
// * * * * * * * * * * * * * * * * * * * * * * * * * * * * * * * * * * * * * //

dimensions      [0 0 0 0 0 0 0];

internalField   nonuniform List<scalar> 
242
(
0.00398981
0.000327422
0.000311394
0.0259948
0.0220609
0.000327422
0.000311394
0.0259948
0.0220609
0.00336599
0.00773705
0.00598879
0.00583266
0.0035538
0.00570589
0.00736101
0.00611738
0.00567605
0.00802236
0.0052967
0.00855157
0.0024841
0.0080118
0.00894344
0.00231049
0.00346924
0.00810489
0.00879955
0.00200997
0.00356118
0.0102957
0.00837965
0.00247819
0.00326658
0.00337431
0.0380568
0.00285231
0.00426784
0.0014182
0.00508533
0.00168984
0.0453464
0.00339865
0.00710334
0.00268858
0.0100978
0.00769339
0.00215244
0.00358058
0.0109649
0.00389543
0.00516648
0.00750255
0.00654937
0.00808708
0.00179009
0.00802525
0.0024024
0.0426903
0.00895722
0.00118375
0.000930361
0.0114733
0.000973223
0.0367157
0.00111899
0.0384107
0.00302834
0.00430753
0.00143138
0.010686
0.00869728
0.00194823
0.00208659
0.0087568
0.00596336
0.00530554
0.00301414
0.0113847
0.00794812
0.00392088
0.00370623
0.0108032
0.0160502
0.00189365
0.00165357
0.0109719
0.0102261
0.00264712
0.00269454
0.00798609
0.00792112
0.00496918
0.00459671
0.0469851
0.00395425
0.00245932
0.00121631
0.0117544
0.0110867
0.00479936
0.00270461
0.0609949
0.0160072
0.00169132
0.00132927
0.0217565
0.00142891
0.0539073
0.00164292
0.00999384
0.00808333
0.00176373
0.00230215
0.0178338
0.0107581
0.00171496
0.00181087
0.000667467
0.042046
0.000583127
0.0136823
0.0184258
0.00061483
0.0375705
0.00063676
0.0031976
0.00524727
0.00382577
0.00200536
0.000668077
0.000583662
0.0420843
0.0275776
0.0324953
0.000615393
0.0376048
0.000637344
0.0126423
0.0111341
0.00171864
0.0018381
0.0101889
0.00525717
0.00474988
0.00354782
0.0113484
0.00807887
0.00856188
0.0034066
0.00875108
0.00393158
0.0108173
0.00262765
0.0555907
0.011664
0.00320423
0.00718686
0.00774473
0.00889517
0.00260318
0.00189503
0.043128
0.0134772
0.00136927
0.00114319
0.00154146
0.0012115
0.00287305
0.0019238
0.00850536
0.00670655
0.00586462
0.00257005
0.0106412
0.0108643
0.00603278
0.00476623
0.0143441
0.0213109
0.0263579
0.00104306
0.0158973
0.00105166
0.00111323
0.00100721
0.0112873
0.0104689
0.00806398
0.0082239
0.00469458
0.00406925
0.00291601
0.00253524
0.0121999
0.011012
0.00786507
0.0110937
0.00425542
0.00348664
0.00289159
0.00296432
0.0161963
0.0142607
0.00256037
0.00264354
0.010856
0.0195446
0.0229513
0.011352
0.00140172
0.00140173
0.00133799
0.00133799
0.00644066
0.00767104
0.0631141
0.00556318
0.00721024
0.00932768
0.00330354
0.00163384
0.00337379
0.0022591
0.0542919
0.00519033
0.00158228
0.00100339
0.00625501
0.00109506
0.0486991
0.00160576
0.0137883
0.00939505
0.00550315
0.0042438
0.0026407
0.0093455
0.00470756
0.00246756
0.00513587
0.00579763
)
;

boundaryField
{
    frontAndBack
    {
        type            empty;
    }
    fixedWalls
    {
        type            zeroGradient;
    }
    movingWall
    {
        type            zeroGradient;
    }
}


// ************************************************************************* //
