/*--------------------------------*- C++ -*----------------------------------*\
  =========                 |
  \\      /  F ield         | OpenFOAM: The Open Source CFD Toolbox
   \\    /   O peration     | Website:  https://openfoam.org
    \\  /    A nd           | Version:  6
     \\/     M anipulation  |
\*---------------------------------------------------------------------------*/
FoamFile
{
    version     2.0;
    format      ascii;
    class       volScalarField;
    location    "0.3";
    object      p;
}
// * * * * * * * * * * * * * * * * * * * * * * * * * * * * * * * * * * * * * //

dimensions      [0 2 -2 0 0 0 0];

internalField   nonuniform List<scalar> 
242
(
-3.41042e-08
0.0129046
-0.0135052
0.349876
-0.285607
0.0126424
-0.0137431
0.394914
-0.236292
-0.00214226
-0.0201569
0.0230053
-0.0204609
0.0020828
-0.0152592
-0.0180989
0.00682063
0.0121038
-0.0195619
-0.0237962
0.0268792
0.00111645
-0.0516345
0.0209624
-0.00942995
0.0176258
-0.0493524
0.0271527
-0.0109987
0.014469
0.0481725
-0.0520512
0.0076527
-0.019093
-0.0102048
-0.0188405
-0.0291022
0.0421922
0.00146449
0.0485835
0.00352028
-0.049045
-0.02504
0.0155255
-0.00201444
0.0393749
-0.0493436
0.00904316
-0.0159785
-0.0250269
-0.0111652
-0.0119916
-0.00937472
0.00133638
0.0508529
0.00421517
-0.0561559
-0.0228859
0.0607809
-0.0894169
0.0161852
-0.0108563
0.105174
0.00967152
-0.0860821
-0.0167544
-0.012235
-0.0338705
0.0338481
-0.00123708
0.0669179
-0.0761871
0.00853055
-0.0178732
-0.0231179
-0.0332769
0.0319318
-0.000978428
0.0116995
-0.0323389
0.0129744
-0.00892223
0.0483505
-0.0877589
0.0146586
-0.0120656
0.0218674
-0.0404815
0.0122542
-0.0108488
0.00851881
0.0126381
0.00759548
0.00571105
-0.0213419
-0.0402281
0.0292682
-0.00313028
-0.0296699
0.0344332
-0.0237635
0.00173411
0.0834159
-0.104419
0.0147171
-0.0120119
0.122973
0.0109191
-0.111374
-0.0154333
-0.0671944
0.0326595
-0.00997325
0.0169895
0.0821354
-0.0859654
0.0108828
-0.0155939
0.0134765
0.134703
-0.0130287
-0.144477
0.18663
0.0120686
-0.143247
-0.0142584
-0.00835741
-0.0363704
0.0299295
-0.00208305
0.0130244
-0.0134021
0.1828
-0.175222
0.208417
0.0124995
-0.16226
-0.0138369
0.0606107
-0.0781244
0.0123848
-0.0135991
0.000904817
-0.0284974
0.0165964
-0.0049631
-0.0282658
-0.0294844
-0.0366642
-0.0241696
0.0365588
0.00106789
0.04358
0.00333111
0.0193899
-0.0713681
-0.0666432
0.0136746
-0.0618586
0.064209
-0.0193407
0.00753199
-0.0734793
0.0801226
-0.0184705
0.00801778
0.0179645
-0.00938257
0.0189318
-0.00889345
-0.00594503
-0.0306521
0.0209664
-0.00339562
-0.0046633
-0.0121302
-0.0203858
-0.0184068
0.0740675
-0.105262
0.105987
0.0141065
-0.10983
-0.0123101
0.0112622
-0.0149184
0.00608659
-0.00271538
-0.0442854
-0.0362961
0.0229058
0.0216968
-0.00590081
-0.00361264
-0.0294438
-0.0402415
0.0242535
0.0303081
-0.016502
0.00546194
-0.0146271
0.00841595
0.0457538
-0.0618852
0.0122463
-0.0134613
0.105291
-0.129366
0.123145
-0.123004
0.0133342
0.0122911
-0.0132167
-0.0141753
-0.00104557
0.00135867
-0.00627493
-0.0486351
-1.36846e-05
-0.0521336
0.0239727
-0.00573616
0.0225401
-0.00620522
0.00119223
-0.0577748
0.020621
-0.00762207
0.0643414
0.00611205
-0.0748133
-0.0209689
-0.0430132
0.04268
-0.0225758
0.00458985
-0.0062112
-0.0452559
0.0244859
-0.00502571
-0.00197529
-0.00758572
)
;

boundaryField
{
    frontAndBack
    {
        type            empty;
    }
    fixedWalls
    {
        type            zeroGradient;
    }
    movingWall
    {
        type            zeroGradient;
    }
}


// ************************************************************************* //
