/*--------------------------------*- C++ -*----------------------------------*\
  =========                 |
  \\      /  F ield         | OpenFOAM: The Open Source CFD Toolbox
   \\    /   O peration     | Website:  https://openfoam.org
    \\  /    A nd           | Version:  6
     \\/     M anipulation  |
\*---------------------------------------------------------------------------*/
FoamFile
{
    version     2.0;
    format      ascii;
    class       surfaceScalarField;
    location    "0.3";
    object      phi;
}
// * * * * * * * * * * * * * * * * * * * * * * * * * * * * * * * * * * * * * //

dimensions      [0 3 -1 0 0 0 0];

internalField   nonuniform List<scalar> 
343
(
0.000347433
-0.000343858
-3.57461e-06
3.27023e-05
-3.27023e-05
3.11014e-05
-3.11014e-05
0.00259631
-0.00259631
0.0022034
-0.0022034
3.27023e-05
3.11014e-05
0.00259631
0.0022034
0.000298036
4.93971e-05
-0.000223976
-0.000403373
0.000627349
-0.000433977
0.000436293
-2.3158e-06
0.000499763
-0.000186217
-0.000313547
0.000112177
0.000148041
-0.000260218
0.000295091
-0.000614012
0.000318922
0.000707637
-0.000412546
-0.000586468
0.000533007
5.34607e-05
-0.000528219
-5.82493e-05
0.000526845
-0.000750821
0.000168651
0.000331112
-0.000660341
0.000226364
-7.85685e-05
0.000190745
-0.000385459
0.00085548
-0.000470021
-0.00028981
-0.000672692
0.000962502
0.000210731
3.79268e-05
-0.000248657
0.000373363
-2.63665e-05
-0.000346997
-0.000820108
0.000434649
0.000632758
-0.000922568
4.18959e-06
0.000206541
0.000192356
0.000181008
0.00059451
-0.00102978
0.000435266
-2.71808e-05
0.000840248
-0.000813067
-0.000189263
-5.86067e-05
0.00024787
-0.00032985
3.28363e-06
0.000326567
0.000169732
0.000128304
-0.00417392
0.00417392
-0.00031283
0.00031283
-0.00046808
0.00046808
-0.000155542
0.000155542
-1.65437e-05
-0.000451537
-7.64916e-05
-7.90505e-05
-0.00065843
-0.00351549
-0.000196913
-0.000115917
-9.19253e-05
0.000197438
0.000941617
-0.000347107
-0.000708026
0.000680845
1.14514e-05
-0.000200715
-0.000177477
-0.000152374
0.000486411
0.000221226
-9.41606e-05
0.000263893
0.000343717
-0.000215413
-0.000496208
-0.000117805
0.000196215
0.000336793
0.00064696
-0.000663503
7.03754e-05
-0.000146867
-0.000410099
-0.000248332
1.91261e-07
-0.000197104
0.00416935
-0.00416935
0.000874808
-0.000874808
0.000115611
-0.000115611
9.08638e-05
-9.08638e-05
-0.00114092
0.00114092
-9.67782e-05
9.67782e-05
-0.00365105
0.00365105
-0.000111273
0.000111273
0.00391015
0.00026377
0.000329076
-1.62459e-05
0.000204667
0.000263414
0.000101222
5.43197e-05
-0.00100389
-2.58848e-05
0.000727467
0.000112781
-0.000187746
0.000129139
-0.000198465
0.000201749
-0.000224791
0.00069632
-0.000471529
0.000462877
-0.000495409
3.25315e-05
5.21735e-05
-0.000421884
0.000369711
0.000111102
-0.000239677
0.000128575
-0.000996907
0.00014133
0.000855578
0.000679559
-0.000193148
3.96571e-05
0.000307151
-0.000346809
0.000222941
-0.000317102
0.000754863
0.000321209
-0.00107607
-0.000933276
-0.000665429
0.00159871
-0.00018862
0.000172605
1.60152e-05
-0.000164706
0.000130043
3.46636e-05
-0.000364149
-0.000140549
0.000232013
0.000227131
-0.000516902
0.000658232
-0.000575152
0.000360612
1.67537e-05
0.00391015
0.000329076
0.000204667
0.000101222
-0.000183544
0.000710389
-0.0001116
-0.000548742
0.000290687
-0.000122036
8.25222e-05
-0.000161091
0.00336246
0.000806897
0.00109419
-0.00021938
5.3378e-05
6.22334e-05
4.66335e-05
4.42303e-05
-0.00147353
0.000332606
-4.91688e-05
-4.76094e-05
-0.00300455
-0.000646499
-5.09226e-05
-6.035e-05
-7.77959e-05
8.21708e-05
-0.00012678
-0.000214987
0.000948466
-0.00195236
-0.000450065
0.00117753
-0.000152898
-3.48484e-05
-0.00018421
-1.42547e-05
5.3378e-05
0.00336246
4.66335e-05
0.00109419
-0.00147353
-4.91688e-05
-0.00300455
-5.09226e-05
3.89787e-05
0.000446631
0.000315587
0.000165422
2.06758e-05
1.5532e-05
0.000766148
-0.00110921
0.00112278
-1.64665e-05
-0.000801147
-1.98212e-05
0.00126968
-0.00111549
1.97072e-05
-5.41674e-05
0.000397898
0.00045768
0.000283274
-0.000476422
-0.000438734
-0.000119664
0.000512776
-0.000204721
0.000102678
-0.00020453
-0.000533484
-0.000157155
0.000113476
-8.67793e-05
-0.000564154
-0.0036052
-0.000530149
-0.000344659
-0.000135551
-0.000481983
-0.000607945
-0.000689388
4.64469e-06
-1.77277e-05
0.00351549
0.000451537
0.000115917
7.90505e-05
-1.05415e-05
-0.00010507
-2.42346e-05
-6.66292e-05
-0.000225528
-0.000151014
-0.000352924
0.000614386
-0.00021237
7.10818e-05
0.000815919
-0.000358239
-0.0001575
-0.000269175
0.00137933
-0.00161975
7.82485e-05
0.000531033
7.88938e-05
-8.24578e-05
-7.46047e-05
0.000824453
0.000138049
-0.000646918
0.000176897
0.000157341
-0.000189656
-0.000199657
-4.90007e-05
0.000848575
-0.000577468
-4.9654e-05
-0.000243464
0.000496973
0.000270114
9.89243e-05
9.44259e-05
-0.000299993
0.000304955
0.0036052
-1.55834e-05
0.000344659
-0.000177028
-0.000623528
9.95967e-05
0.00010507
3.45932e-05
6.66292e-05
-0.000125931
-0.000116421
0.000333218
)
;

boundaryField
{
    frontAndBack
    {
        type            empty;
        value           nonuniform 0();
    }
    fixedWalls
    {
        type            calculated;
        value           uniform 0;
    }
    movingWall
    {
        type            calculated;
        value           uniform 0;
    }
}


// ************************************************************************* //
