/*--------------------------------*- C++ -*----------------------------------*\
  =========                 |
  \\      /  F ield         | OpenFOAM: The Open Source CFD Toolbox
   \\    /   O peration     | Website:  https://openfoam.org
    \\  /    A nd           | Version:  6
     \\/     M anipulation  |
\*---------------------------------------------------------------------------*/
FoamFile
{
    version     2.0;
    format      ascii;
    class       volVectorField;
    location    "0.3";
    object      U;
}
// * * * * * * * * * * * * * * * * * * * * * * * * * * * * * * * * * * * * * //

dimensions      [0 1 -1 0 0 0 0];

internalField   nonuniform List<vector> 
242
(
(-0.0376183 -0.00191096 -4.37644e-22)
(-0.00145746 -0.00187344 5.15786e-20)
(-0.00179402 0.0013221 0)
(0.335348 -0.00650732 0)
(0.0345178 0.130269 1.05252e-18)
(-0.0018876 -0.0013927 -5.15803e-20)
(-0.00138863 0.00176563 0)
(0.14017 -0.109578 0)
(0.332117 0.031101 -1.05491e-18)
(-0.0348532 0.000863276 0)
(-0.0786688 0.0132352 5.13513e-20)
(-0.0533152 -0.0310155 0)
(-0.0356997 0.0230187 0)
(-0.0285308 -0.00207589 -2.21687e-21)
(-0.0543485 0.0168994 1.73797e-20)
(-0.0629404 0.0183226 0)
(-0.0488989 -0.00930766 2.17786e-21)
(-0.0499945 -0.015718 0)
(-0.0837376 0.0159735 0)
(-0.0333597 0.0286773 0)
(-0.0512176 -0.0379965 -4.04638e-20)
(-0.0255927 -0.00127922 3.63324e-21)
(-0.0557062 0.0606818 9.70937e-20)
(-0.100452 -0.0151071 0)
(-0.0209517 0.00778261 0)
(-0.02065 -0.0234274 -3.06085e-20)
(-0.0636701 0.0550764 -1.02114e-19)
(-0.099507 -0.0238496 0)
(-0.0206199 0.00945926 -2.74214e-20)
(-0.0237645 -0.0176236 5.73164e-20)
(-0.0692475 -0.0658394 0)
(-0.0942966 0.0373182 -1.31234e-19)
(-0.0221508 -0.00748569 -1.07262e-20)
(-0.0198415 0.022689 3.74621e-20)
(-0.0353778 0.0102859 0)
(0.4898 -0.0142752 6.54828e-20)
(-0.00494678 0.0251172 0)
(-0.00528465 -0.0401649 -8.49144e-20)
(-0.0125987 -0.000599654 0)
(-0.014067 -0.0619448 1.64818e-19)
(-0.0158156 -0.0014237 0)
(0.2983 -2.61531e-05 -1.47941e-19)
(-0.0079759 0.0273489 0)
(-0.0474245 -0.0202705 4.34326e-20)
(-0.0302595 0.00180702 9.20819e-21)
(-0.0798397 -0.050223 2.34699e-20)
(-0.0848206 0.0416337 0)
(-0.022429 -0.00895687 -1.31703e-20)
(-0.0227932 0.0169209 0)
(-0.0671362 0.026418 5.30078e-21)
(-0.0326762 0.0101074 3.07804e-22)
(-0.0399157 0.0133396 -1.45147e-20)
(-0.0551081 0.0107889 0)
(-0.0497522 -0.00242496 -4.95294e-21)
(-0.0321589 -0.071812 1.15183e-19)
(-0.0186052 -0.00136226 9.14178e-21)
(0.0301351 0.0212573 0)
(-0.0101659 0.0274982 0)
(0.533325 -0.010722 0)
(-0.0109392 0.0826309 0)
(-0.00226609 -0.00983088 1.38832e-20)
(-0.00770701 0.00123275 -1.03443e-20)
(-0.0170125 -0.107338 -2.35025e-19)
(-0.00813678 -0.00132393 0)
(0.496159 -0.00079429 0)
(-0.00223667 0.00936476 3.24371e-20)
(0.249235 0.00315983 0)
(-0.00858006 0.0398223 0)
(-0.0104021 -0.0413085 0)
(-0.0163692 0.00044829 1.6297e-21)
(-0.0686509 -0.100193 0)
(-0.0759954 0.0380961 2.22751e-19)
(-0.0175638 -0.0057027 2.75429e-20)
(-0.0117761 0.0190715 -5.71286e-20)
(-0.0673302 -0.00251521 -3.3049e-20)
(-0.0239402 0.0443892 1.2253e-19)
(-0.0230014 -0.0473996 -6.94577e-20)
(-0.0228089 -0.00044422 6.55179e-21)
(-0.087142 -0.0179709 4.57433e-23)
(-0.0575963 0.0379056 8.68585e-20)
(-0.0319773 -0.0193127 0)
(-0.0292722 0.00814492 -7.56909e-22)
(-0.0950282 -0.0717787 -1.29817e-19)
(-0.087742 0.106644 -2.01652e-19)
(-0.0109291 -0.0145595 0)
(-0.0138912 0.00686405 2.51567e-20)
(-0.0879246 -0.028336 0)
(-0.06597 0.0443022 -1.43916e-19)
(-0.0263398 -0.0157246 -1.89533e-20)
(-0.0251556 0.00905413 2.64111e-20)
(-0.0671577 -0.0119154 2.62662e-20)
(-0.0638755 -0.0163528 -2.97256e-20)
(-0.0375057 -0.0118691 2.52676e-21)
(-0.0360965 -0.00934362 4.84613e-22)
(0.615795 0.00859951 0)
(-0.00482296 0.0297685 5.41266e-20)
(-0.00268467 -0.0211341 -3.15136e-20)
(-0.00964054 2.33547e-05 -5.55412e-21)
(-0.0883393 0.0217347 0)
(-0.0490567 -0.0499601 -7.14954e-20)
(-0.0270334 0.029582 -4.38042e-20)
(-0.0238785 -0.000788448 -7.73044e-21)
(0.305042 -0.032502 -5.84069e-20)
(-0.0284294 0.134872 0)
(-0.00413892 -0.0104374 -5.5846e-20)
(-0.00877905 0.00265585 0)
(-0.0425578 -0.172529 3.44178e-19)
(-0.00924382 -0.00278412 8.24324e-21)
(0.261433 0.0216388 -9.34523e-20)
(-0.00391442 0.00993445 -4.77252e-20)
(-0.0504798 0.0910517 0)
(-0.0822435 -0.0196807 0)
(-0.0168189 0.00549439 0)
(-0.0124418 -0.0202158 0)
(-0.116904 -0.118555 0)
(-0.0942851 0.0749621 -2.64853e-19)
(-0.014736 -0.00741121 -9.06483e-21)
(-0.0107995 0.0140771 1.57991e-20)
(-0.0016017 -0.00434113 -3.28605e-20)
(0.560433 0.00271779 0)
(-0.00379474 0.00121361 -3.2774e-20)
(-0.00693457 0.126434 0)
(-0.00577128 -0.168959 0)
(-0.0040068 -0.00127521 0)
(0.519765 0.0210001 -3.01151e-19)
(-0.00151817 0.0041241 2.56039e-20)
(0.0243478 -0.00471704 0)
(-0.0174975 0.0484853 -9.24401e-20)
(-0.0163336 -0.0408975 7.63698e-20)
(-0.0199511 0.000457407 -5.8704e-21)
(-0.00270445 -0.00486105 2.53433e-20)
(-0.00455259 0.00228144 4.21188e-20)
(0.208164 -0.0390918 0)
(-0.0486349 0.239598 0)
(-0.0110196 -0.298105 0)
(-0.00479865 -0.00241117 0)
(0.121857 0.062602 2.99286e-19)
(-0.00258047 0.00464446 -4.46926e-20)
(-0.119507 -0.0655618 0)
(-0.0925938 0.0772171 0)
(-0.0150853 -0.0111658 0)
(-0.0144075 0.0109192 0)
(-0.0857278 -0.00153625 0)
(-0.046896 0.0335159 0)
(-0.0363032 -0.0236549 -3.54202e-20)
(-0.0293831 0.00423653 -2.94942e-21)
(-0.0797158 0.00773822 4.2142e-20)
(-0.0226074 0.0402301 3.61497e-20)
(-0.0552496 0.0260416 0)
(-0.0132551 0.0315329 -4.42983e-20)
(-0.0323816 -0.0537246 1.51757e-21)
(-0.0234052 -0.00105749 2.92693e-22)
(-0.0399698 -0.062779 -1.54975e-19)
(-0.0211052 -0.00118406 -1.8884e-20)
(0.358732 -0.00931887 0)
(-0.0228969 0.087305 0)
(0.0237675 0.0218119 0)
(0.0339487 -0.00357564 0)
(-0.0335437 0.083333 1.8276e-20)
(-0.0482344 -0.0947003 0)
(-0.00851106 0.0206902 0)
(-0.0168195 -0.0034601 0)
(0.25212 0.0168607 1.79418e-19)
(-0.0319411 -0.107576 1.72742e-19)
(-0.00395718 0.0160776 4.77752e-20)
(-0.0126989 -0.00162146 1.68476e-20)
(-0.00375539 -0.0166326 2.32551e-20)
(-0.0119954 0.001455 1.35582e-20)
(-0.00872918 -0.0225768 0)
(-0.016415 0.0033318 0)
(-0.0876066 0.00117907 -9.78884e-21)
(-0.0435755 0.0361471 -7.51258e-20)
(-0.0350401 -0.0298029 5.91105e-20)
(-0.0253816 0.00227585 4.33342e-21)
(-0.0761038 0.00415439 -4.81656e-21)
(-0.075858 0.0111333 -2.15702e-20)
(-0.045809 0.0232651 -1.10124e-20)
(-0.0399121 0.0218334 -1.35619e-20)
(-0.00908954 -0.0945983 1.92411e-19)
(-0.0847908 0.135201 2.63845e-19)
(-0.111721 -0.158286 3.91108e-20)
(-0.00686582 -0.0111628 9.71873e-21)
(-0.0439484 0.0797744 2.74346e-19)
(-0.0105502 0.00456223 -3.28909e-20)
(-0.0110466 -0.00475836 -7.57334e-21)
(-0.00652517 0.0106942 1.03785e-20)
(-0.0923933 0.00347611 4.78054e-22)
(-0.0931951 0.00179473 1.09114e-20)
(-0.0392193 0.0579287 1.02071e-19)
(-0.0404449 0.0465225 -1.69083e-20)
(-0.0286801 -0.0321823 3.62433e-20)
(-0.0210355 -0.0291156 -6.73077e-20)
(-0.0231808 0.00372012 1.12704e-20)
(-0.0234539 0.00175143 -2.40416e-20)
(-0.0812496 0.0238844 -4.14327e-20)
(-0.0797386 0.0386023 5.30684e-20)
(-0.0644353 -0.0343861 -3.73373e-20)
(-0.076539 -0.0387485 3.25404e-20)
(-0.031327 0.0181367 5.89295e-22)
(-0.0305749 -0.00641756 0)
(-0.0252183 0.0153832 0)
(-0.0267888 -0.00876404 8.86347e-21)
(-0.108765 -0.053731 -2.79661e-20)
(-0.0842583 0.0645766 0)
(-0.0197278 -0.0126495 -7.0401e-21)
(-0.0183716 0.0122652 8.12751e-21)
(-0.0460781 -0.133464 3.22767e-20)
(-0.108945 0.149185 0)
(-0.118836 -0.182873 -4.10807e-20)
(-0.0686903 0.11628 1.01189e-19)
(-0.00620379 -0.00794176 9.44132e-21)
(-0.00835162 -0.00541995 0)
(-0.00799122 0.00513318 -9.52347e-21)
(-0.00595035 0.00755852 1.00317e-20)
(-0.0564665 -0.00143766 1.4889e-22)
(-0.0646223 -0.00278978 4.33024e-21)
(0.373052 0.0115071 4.35131e-21)
(-0.00991586 0.0534429 -1.14042e-19)
(0.0715704 0.00413086 0)
(-0.0235338 0.0685216 -1.2982e-19)
(-0.00468845 -0.0245438 6.29807e-21)
(-0.0136498 0.00063045 1.83041e-20)
(-0.00872743 -0.0281561 7.06928e-20)
(-0.0180124 0.00133293 0)
(0.707734 0.0085864 -3.90425e-21)
(-0.00480371 0.0360664 0)
(-0.00131239 -0.0107396 3.27525e-20)
(-0.00660867 0.00029181 -9.73797e-21)
(-0.00759293 -0.0475746 -2.74465e-19)
(-0.00756034 -0.000562726 -1.91249e-20)
(0.655094 0.0150804 -1.16071e-19)
(-0.0019734 0.011306 -5.42315e-20)
(-0.092488 0.0212369 0)
(-0.0489331 -0.0613747 6.59486e-20)
(-0.0196597 0.0275697 0)
(-0.0242008 -0.00407521 2.43367e-21)
(-0.0189821 0.00435333 -6.01012e-22)
(-0.0287722 0.0616053 1.6304e-19)
(-0.0139301 -0.0327905 -5.32805e-20)
(-0.0203332 0.00166754 0)
(-0.0442279 0.00249434 0)
(-0.0468981 0.00822935 1.68198e-20)
)
;

boundaryField
{
    frontAndBack
    {
        type            empty;
    }
    fixedWalls
    {
        type            noSlip;
    }
    movingWall
    {
        type            fixedValue;
        value           uniform (1 0 0);
    }
}


// ************************************************************************* //
