# Probe 0 (0 0 0)
#       Probe             0
#        Time
            0             0
          0.5   9.05933e-09
            1   1.60183e-08
          1.5   2.06166e-09
            2    2.3958e-08
          2.5   5.17424e-08
            3   6.18543e-08
          3.5   3.01604e-08
            4   2.65489e-08
          4.5   4.71796e-08
            5   4.28207e-08
          5.5   3.96558e-08
            6   3.67514e-08
          6.5   2.98901e-08
            7   6.72496e-08
          7.5   5.84852e-08
            8   5.16948e-08
          8.5   4.26225e-08
            9   3.56547e-08
          9.5   3.09599e-08
           10   2.64619e-08
