# Probe 0 (0 0 0)
#       Probe             0
#        Time
            0             (0 0 0)
          0.5             (-0.000241189 0.000243378 0)
            1             (-9.85656e-05 0.000104261 0)
          1.5             (-2.62005e-05 3.04861e-05 0)
            2             (5.48851e-05 -7.96533e-05 0)
          2.5             (0.000285883 -0.000452722 0)
            3             (0.00096923 -0.00119654 0)
          3.5             (0.00129044 -0.00131152 0)
            4             (0.00145536 -0.00144656 0)
          4.5             (0.00172243 -0.00212461 0)
            5             (0.00193283 -0.00255035 0)
          5.5             (0.00200034 -0.00262483 0)
            6             (0.00196097 -0.00252738 0)
          6.5             (0.00206464 -0.00255779 0)
            7             (0.00225266 -0.00273228 0)
          7.5             (0.00238238 -0.002901 0)
            8             (0.00248527 -0.00299686 0)
          8.5             (0.00261857 -0.00307126 0)
            9             (0.00274389 -0.00317245 0)
          9.5             (0.00283755 -0.00327233 0)
           10             (0.00291222 -0.00334628 0)
