/*--------------------------------*- C++ -*----------------------------------*\
  =========                 |
  \\      /  F ield         | OpenFOAM: The Open Source CFD Toolbox
   \\    /   O peration     | Website:  https://openfoam.org
    \\  /    A nd           | Version:  6
     \\/     M anipulation  |
\*---------------------------------------------------------------------------*/
FoamFile
{
    version     2.0;
    format      ascii;
    class       volScalarField;
    location    "0.5";
    object      p;
}
// * * * * * * * * * * * * * * * * * * * * * * * * * * * * * * * * * * * * * //

dimensions      [0 2 -2 0 0 0 0];

internalField   nonuniform List<scalar> 
400
(
3.30906e-08
-0.00503956
-0.0114246
-0.0162667
-0.017894
-0.015601
-0.00932601
0.000531471
0.0132336
0.0278129
0.0431412
0.0579833
0.0711139
0.0814074
0.0879729
0.0903126
0.0884959
0.0833531
0.0767456
0.0716514
0.00496548
-0.000219156
-0.00590324
-0.0098058
-0.0108912
-0.00868603
-0.00314899
0.00539691
0.0163446
0.0288909
0.0420803
0.054868
0.0662157
0.0751708
0.0809838
0.0832388
0.0819809
0.077797
0.0719047
0.0666705
0.0116679
0.00516729
-0.000949812
-0.00460201
-0.00547882
-0.00343295
0.00149288
0.00900189
0.0185796
0.0295478
0.0410932
0.0523279
0.0623517
0.0703286
0.0755838
0.0777115
0.0766602
0.0726896
0.0663129
0.0597238
0.0175737
0.00904674
0.00155085
-0.00259177
-0.00363934
-0.00175762
0.0028882
0.00996936
0.0189963
0.0293465
0.0402825
0.0509876
0.0606133
0.0683448
0.0734839
0.0755481
0.0743352
0.0697934
0.0619105
0.0531894
0.0209996
0.0102397
0.00103507
-0.00386983
-0.00517839
-0.00333237
0.00137379
0.00855215
0.0177003
0.0282108
0.0393734
0.0503894
0.0604039
0.0685591
0.0740683
0.0763149
0.0749134
0.0695245
0.0597385
0.0485941
0.0207316
0.00770137
-0.00326501
-0.00892947
-0.0103792
-0.0083093
-0.00314384
0.00465723
0.0145588
0.0259452
0.0381042
0.0502224
0.0614004
0.0706927
0.0771738
0.0800433
0.0786963
0.0724998
0.0606961
0.0469817
0.0156788
0.000375721
-0.012291
-0.0185493
-0.0198625
-0.0171818
-0.0110686
-0.00206394
0.00925431
0.0222514
0.0362002
0.0502548
0.0634473
0.0747121
0.0829388
0.0870886
0.0862801
0.0795367
0.0657287
0.0493087
0.00468795
-0.0128822
-0.0271038
-0.0336421
-0.0343819
-0.0305659
-0.0229118
-0.0120509
0.0013941
0.0167726
0.0333462
0.0502365
0.0663971
0.080627
0.0915873
0.0979348
0.0984258
0.0916349
0.0759556
0.0566893
-0.0135969
-0.0334085
-0.0489322
-0.0552533
-0.0547866
-0.0491404
-0.0392242
-0.0257697
-0.00943649
0.00912951
0.0292023
0.0498888
0.0700832
0.0884552
0.103395
0.113182
0.11609
0.110069
0.0928319
0.0706087
-0.0408828
-0.0628485
-0.0792409
-0.0845742
-0.0819888
-0.0735855
-0.0605192
-0.0436311
-0.0235959
-0.00101302
0.0234474
0.0489107
0.0743355
0.0982266
0.118691
0.133565
0.140482
0.13651
0.11834
0.093163
-0.0794336
-0.103311
-0.119805
-0.122931
-0.116888
-0.104466
-0.087135
-0.0658447
-0.0412381
-0.0137978
0.0159078
0.0472095
0.0791032
0.110013
0.137856
0.159958
0.173121
0.17317
0.155229
0.127381
-0.132417
-0.157604
-0.172794
-0.171732
-0.160229
-0.142041
-0.119022
-0.0921983
-0.0620913
-0.0290277
0.00670799
0.0447549
0.0842828
0.123874
0.161289
0.193365
0.215877
0.222969
0.20736
0.177714
-0.204557
-0.229631
-0.240871
-0.232346
-0.212345
-0.185963
-0.155444
-0.121792
-0.0853514
-0.0460888
-0.00372662
0.0417832
0.0900323
0.139943
0.189381
0.234853
0.270945
0.289723
0.28021
0.250862
-0.303472
-0.325
-0.32725
-0.305863
-0.272749
-0.234853
-0.194645
-0.152863
-0.109345
-0.0634081
-0.014181
0.0390775
0.0967151
0.158334
0.222316
0.285263
0.34061
0.378202
0.381641
0.357352
-0.442277
-0.452113
-0.435605
-0.392416
-0.33958
-0.28589
-0.233531
-0.182309
-0.131235
-0.078731
-0.0230042
0.0376793
0.104745
0.178935
0.259753
0.344665
0.427175
0.493706
0.52281
0.514176
-0.642343
-0.622966
-0.56949
-0.490199
-0.408871
-0.334496
-0.267331
-0.205832
-0.147489
-0.0893228
-0.0282866
0.0386133
0.114223
0.200969
0.300385
0.412114
0.531785
0.643607
0.718843
0.747123
-0.938085
-0.853464
-0.729036
-0.593052
-0.472723
-0.372409
-0.289096
-0.218098
-0.154232
-0.0926
-0.0286638
0.0419844
0.123876
0.221638
0.339966
0.482782
0.650293
0.830912
0.989118
1.0944
-1.43108
-1.17265
-0.901078
-0.680027
-0.511643
-0.38493
-0.288778
-0.21267
-0.147791
-0.087075
-0.0245838
0.0453319
0.128838
0.23291
0.366357
0.539745
0.763546
1.04399
1.3682
1.66533
-2.49391
-1.64642
-1.04525
-0.704772
-0.492752
-0.351358
-0.254172
-0.183192
-0.125784
-0.0732325
-0.0190396
0.0430689
0.120058
0.220447
0.357197
0.549488
0.825799
1.24452
1.92907
2.84573
-4.48174
-2.27182
-1.15565
-0.68246
-0.435744
-0.290248
-0.201361
-0.142599
-0.097819
-0.0573949
-0.0153456
0.0348812
0.100387
0.189638
0.318973
0.517503
0.837155
1.41067
2.64128
4.94739
)
;

boundaryField
{
    movingWall
    {
        type            zeroGradient;
    }
    fixedWalls
    {
        type            zeroGradient;
    }
    frontAndBack
    {
        type            empty;
    }
}


// ************************************************************************* //
