/*--------------------------------*- C++ -*----------------------------------*\
  =========                 |
  \\      /  F ield         | OpenFOAM: The Open Source CFD Toolbox
   \\    /   O peration     | Website:  https://openfoam.org
    \\  /    A nd           | Version:  6
     \\/     M anipulation  |
\*---------------------------------------------------------------------------*/
FoamFile
{
    version     2.0;
    format      ascii;
    class       surfaceScalarField;
    location    "0.5";
    object      phi;
}
// * * * * * * * * * * * * * * * * * * * * * * * * * * * * * * * * * * * * * //

dimensions      [0 3 -1 0 0 0 0];

internalField   nonuniform List<scalar> 
760
(
6.97381e-09
-6.97411e-09
-3.1994e-08
3.89678e-08
-1.22715e-07
9.0721e-08
-2.5077e-07
1.28055e-07
-3.97543e-07
1.46773e-07
-5.45062e-07
1.47519e-07
-6.77686e-07
1.32624e-07
-7.82749e-07
1.05063e-07
-8.50794e-07
6.8045e-08
-8.75764e-07
2.49692e-08
-8.55007e-07
-2.0757e-08
-7.89685e-07
-6.53221e-08
-6.84978e-07
-1.04706e-07
-5.50292e-07
-1.34686e-07
-3.99193e-07
-1.511e-07
-2.48868e-07
-1.50324e-07
-1.18844e-07
-1.30024e-07
-2.8494e-08
-9.03501e-08
8.48065e-09
-3.69747e-08
8.48063e-09
-3.7729e-08
3.07549e-08
-1.84591e-07
1.8583e-07
-4.37707e-07
3.43837e-07
-7.67057e-07
4.57405e-07
-1.13327e-06
5.12984e-07
-1.49653e-06
5.10785e-07
-1.821e-06
4.57092e-07
-2.07699e-06
3.61047e-07
-2.24207e-06
2.33131e-07
-2.30185e-06
8.47481e-08
-2.2504e-06
-7.22103e-08
-2.0908e-06
-2.24917e-07
-1.83568e-06
-3.59825e-07
-1.50731e-06
-4.63061e-07
-1.13706e-06
-5.21346e-07
-7.63756e-07
-5.23631e-07
-4.30232e-07
-4.63549e-07
-1.77477e-07
-3.43105e-07
-3.44545e-08
-1.79997e-07
-2.59739e-08
-9.31823e-08
1.23937e-07
-3.58266e-07
4.50913e-07
-7.65663e-07
7.51233e-07
-1.26915e-06
9.60891e-07
-1.81464e-06
1.05848e-06
-2.34812e-06
1.04426e-06
-2.82069e-06
9.2966e-07
-3.19164e-06
7.32001e-07
-3.43018e-06
4.71672e-07
-3.51639e-06
1.70963e-07
-3.4422e-06
-1.46405e-07
-3.21195e-06
-4.55167e-07
-2.843e-06
-7.28773e-07
-2.36581e-06
-9.4025e-07
-1.82311e-06
-1.06405e-06
-1.26756e-06
-1.07918e-06
-7.57376e-07
-9.73735e-07
-3.49257e-07
-7.51224e-07
-8.86716e-08
-4.40582e-07
-1.14646e-07
-1.45271e-07
2.69208e-07
-5.25649e-07
8.31291e-07
-1.08152e-06
1.3071e-06
-1.74674e-06
1.62611e-06
-2.45267e-06
1.76441e-06
-3.13377e-06
1.72536e-06
-3.73191e-06
1.52779e-06
-4.19907e-06
1.19917e-06
-4.49908e-06
7.71684e-07
-4.60855e-06
2.80424e-07
-4.51774e-06
-2.37212e-07
-4.23138e-06
-7.4153e-07
-3.7693e-06
-1.19085e-06
-3.16678e-06
-1.54277e-06
-2.47393e-06
-1.7569e-06
-1.75355e-06
-1.79955e-06
-1.07689e-06
-1.6504e-06
-5.16901e-07
-1.31121e-06
-1.40042e-07
-8.17441e-07
-2.54688e-07
-1.93513e-07
4.62721e-07
-6.84641e-07
1.32242e-06
-1.38445e-06
2.00691e-06
-2.20482e-06
2.44648e-06
-3.06162e-06
2.62121e-06
-3.87859e-06
2.54234e-06
-4.59031e-06
2.23951e-06
-5.14386e-06
1.75272e-06
-5.49974e-06
1.12756e-06
-5.63236e-06
4.13042e-07
-5.53059e-06
-3.38983e-07
-5.19855e-06
-1.07356e-06
-4.65662e-06
-1.73279e-06
-3.94227e-06
-2.25712e-06
-3.11041e-06
-2.58876e-06
-2.23219e-06
-2.67776e-06
-1.39175e-06
-2.49084e-06
-6.80342e-07
-2.02262e-06
-1.88688e-07
-1.30909e-06
-4.43376e-07
-2.40051e-07
7.02772e-07
-8.39705e-07
1.92207e-06
-1.68099e-06
2.8482e-06
-2.65259e-06
3.41807e-06
-3.65411e-06
3.62273e-06
-4.59908e-06
3.48731e-06
-5.41627e-06
3.0567e-06
-6.04978e-06
2.38623e-06
-6.45856e-06
1.53634e-06
-6.61587e-06
5.70355e-07
-6.50928e-06
-4.45575e-07
-6.14133e-06
-1.44151e-06
-5.53098e-06
-2.34314e-06
-4.71546e-06
-3.07263e-06
-3.7521e-06
-3.55212e-06
-2.71897e-06
-3.71089e-06
-1.71334e-06
-3.49648e-06
-8.46901e-07
-2.88906e-06
-2.37718e-07
-1.91828e-06
-6.81093e-07
-2.87261e-07
9.90033e-07
-9.96262e-07
2.63107e-06
-1.97845e-06
3.83039e-06
-3.09784e-06
4.53746e-06
-4.23745e-06
4.76234e-06
-5.30153e-06
4.55139e-06
-6.21495e-06
3.97011e-06
-6.9211e-06
3.09238e-06
-7.37939e-06
1.99464e-06
-7.56323e-06
7.54189e-07
-7.45904e-06
-5.49765e-07
-7.06676e-06
-1.83379e-06
-6.40179e-06
-3.00811e-06
-5.49818e-06
-3.97625e-06
-4.41264e-06
-4.63767e-06
-3.22796e-06
-4.89557e-06
-2.05414e-06
-4.6703e-06
-1.02527e-06
-3.91793e-06
-2.90668e-07
-2.65288e-06
-9.71761e-07
-3.37384e-07
1.32742e-06
-1.15928e-06
3.45297e-06
-2.28251e-06
4.95362e-06
-3.54431e-06
5.79926e-06
-4.81113e-06
6.02917e-06
-5.97987e-06
5.72012e-06
-6.9745e-06
4.96475e-06
-7.74098e-06
3.85886e-06
-8.24201e-06
2.49567e-06
-8.45298e-06
9.65156e-07
-8.35969e-06
-6.43048e-07
-7.95845e-06
-2.23503e-06
-7.2586e-06
-3.70796e-06
-6.28712e-06
-4.94773e-06
-5.0957e-06
-5.82909e-06
-3.76794e-06
-6.22333e-06
-2.42465e-06
-6.01359e-06
-1.22372e-06
-5.11886e-06
-3.51049e-07
-3.52555e-06
-1.32281e-06
-3.92704e-07
1.72012e-06
-1.33322e-06
4.39348e-06
-2.59662e-06
6.21702e-06
-3.99019e-06
7.19283e-06
-5.36466e-06
7.40363e-06
-6.61304e-06
6.96851e-06
-7.66319e-06
6.0149e-06
-8.4684e-06
4.66407e-06
-8.99874e-06
3.02601e-06
-9.23436e-06
1.20077e-06
-9.16151e-06
-7.15899e-07
-8.77194e-06
-2.6246e-06
-8.06609e-06
-4.41381e-06
-7.0589e-06
-5.95492e-06
-5.79064e-06
-7.09734e-06
-4.33917e-06
-7.67479e-06
-2.83157e-06
-7.5212e-06
-1.4496e-06
-6.50083e-06
-4.22416e-07
-4.55273e-06
-1.74523e-06
-4.56073e-07
2.17619e-06
-1.52271e-06
5.46012e-06
-2.92191e-06
7.61621e-06
-4.42696e-06
8.69789e-06
-5.87517e-06
8.85184e-06
-7.16169e-06
8.25503e-06
-8.2254e-06
7.07861e-06
-9.03372e-06
5.4724e-06
-9.56961e-06
3.56189e-06
-9.82188e-06
1.45304e-06
-9.77916e-06
-7.58619e-07
-9.42839e-06
-2.97537e-06
-8.75721e-06
-5.08499e-06
-7.76334e-06
-6.94879e-06
-6.4668e-06
-8.39388e-06
-4.92946e-06
-9.21214e-06
-3.27598e-06
-9.17467e-06
-1.70912e-06
-8.06769e-06
-5.08705e-07
-5.75315e-06
-2.25393e-06
-5.31807e-07
2.708e-06
-1.73365e-06
6.66196e-06
-3.25713e-06
9.13969e-06
-4.83734e-06
1.02781e-05
-6.30359e-06
1.03181e-05
-7.56305e-06
9.51449e-06
-8.57601e-06
8.09156e-06
-9.33294e-06
6.22932e-06
-9.83648e-06
4.06544e-06
-1.00887e-05
1.70524e-06
-1.00838e-05
-7.63533e-07
-9.80457e-06
-3.25456e-06
-9.22391e-06
-5.66566e-06
-8.31448e-06
-7.85821e-06
-7.06548e-06
-9.64288e-06
-5.50839e-06
-1.07692e-05
-3.75067e-06
-1.09324e-05
-2.00722e-06
-9.81114e-06
-6.14813e-07
-7.14555e-06
-2.86874e-06
-6.2703e-07
3.33503e-06
-1.9743e-06
8.00923e-06
-3.59726e-06
1.07627e-05
-5.19062e-06
1.18714e-05
-6.58752e-06
1.1715e-05
-7.72284e-06
1.06498e-05
-8.59243e-06
8.96115e-06
-9.22052e-06
6.85741e-06
-9.63726e-06
4.48218e-06
-9.86357e-06
1.93156e-06
-9.90167e-06
-7.25442e-07
-9.73081e-06
-3.42542e-06
-9.30912e-06
-6.08736e-06
-8.57964e-06
-8.58769e-06
-7.48869e-06
-1.07338e-05
-6.01815e-06
-1.22398e-05
-4.23501e-06
-1.27155e-05
-2.34657e-06
-1.16996e-05
-7.47423e-07
-8.7447e-06
-3.61616e-06
-7.53615e-07
4.08865e-06
-2.2554e-06
9.51101e-06
-3.92795e-06
1.24352e-05
-5.43179e-06
1.33753e-05
-6.62745e-06
1.29107e-05
-7.50141e-06
1.15238e-05
-8.10284e-06
9.56257e-06
-8.5012e-06
7.25577e-06
-8.75967e-06
4.74066e-06
-8.92111e-06
2.09299e-06
-8.99971e-06
-6.46837e-07
-8.97575e-06
-3.44937e-06
-8.79334e-06
-6.26977e-06
-8.36416e-06
-9.01687e-06
-7.58219e-06
-1.15158e-05
-6.35777e-06
-1.34642e-05
-4.68497e-06
-1.43883e-05
-2.72468e-06
-1.36599e-05
-9.16059e-07
-1.05533e-05
-4.53222e-06
-9.30829e-07
5.01947e-06
-2.58587e-06
1.11661e-05
-4.20933e-06
1.40587e-05
-5.4574e-06
1.46234e-05
-6.26088e-06
1.37141e-05
-6.69098e-06
1.19539e-05
-6.86894e-06
9.74053e-06
-6.91591e-06
7.30273e-06
-6.93106e-06
4.75581e-06
-6.98032e-06
2.14225e-06
-7.091e-06
-5.36161e-07
-7.24761e-06
-3.29277e-06
-7.38698e-06
-6.1304e-06
-7.39501e-06
-9.00884e-06
-7.11171e-06
-1.17991e-05
-6.35731e-06
-1.42186e-05
-5.01251e-06
-1.57331e-05
-3.12532e-06
-1.55471e-05
-1.1338e-06
-1.25448e-05
-5.66603e-06
-1.18258e-06
6.20206e-06
-2.95105e-06
1.29345e-05
-4.33794e-06
1.54455e-05
-5.06776e-06
1.53532e-05
-5.21804e-06
1.38644e-05
-4.98302e-06
1.17189e-05
-4.56534e-06
9.32286e-06
-4.13815e-06
6.87554e-06
-3.82848e-06
4.44614e-06
-3.71756e-06
2.03133e-06
-3.8435e-06
-4.10218e-07
-4.19985e-06
-2.93642e-06
-4.72805e-06
-5.60219e-06
-5.30516e-06
-8.43174e-06
-5.732e-06
-1.13723e-05
-5.73832e-06
-1.42123e-05
-5.03769e-06
-1.64338e-05
-3.49487e-06
-1.70899e-05
-1.41275e-06
-1.4627e-05
-7.07877e-06
-1.51644e-06
7.7185e-06
-3.25305e-06
1.46711e-05
-4.05517e-06
1.62477e-05
-3.88287e-06
1.51809e-05
-3.05572e-06
1.30373e-05
-1.918e-06
1.05811e-05
-7.55239e-07
8.1601e-06
2.32623e-07
5.88768e-06
9.16631e-07
3.76213e-06
1.21857e-06
1.7294e-06
1.09785e-06
-2.89499e-07
5.48537e-07
-2.38711e-06
-3.92078e-07
-4.66158e-06
-1.62311e-06
-7.20071e-06
-2.94695e-06
-1.00484e-05
-4.03552e-06
-1.31237e-05
-4.42257e-06
-1.60467e-05
-3.66501e-06
-1.78474e-05
-1.73709e-06
-1.65549e-05
-8.81586e-06
-1.8718e-06
9.5903e-06
-3.17212e-06
1.59715e-05
-2.76559e-06
1.58411e-05
-1.15822e-06
1.35735e-05
9.89391e-07
1.08897e-05
3.18512e-06
8.38541e-06
5.12993e-06
6.21529e-06
6.65986e-06
4.35775e-06
7.68796e-06
2.73404e-06
8.16686e-06
1.25049e-06
8.06739e-06
-1.90033e-07
7.37113e-06
-1.69085e-06
6.07748e-06
-3.36793e-06
4.22491e-06
-5.34814e-06
1.93936e-06
-7.76286e-06
-4.87588e-07
-1.06968e-05
-2.49373e-06
-1.40406e-05
-3.22759e-06
-1.71136e-05
-2.0008e-06
-1.77817e-05
-1.08167e-05
-2.0497e-06
1.164e-05
-1.78747e-06
1.57092e-05
9.08285e-07
1.31454e-05
4.52709e-06
9.95472e-06
8.11337e-06
7.30338e-06
1.124e-05
5.25877e-06
1.37512e-05
3.70409e-06
1.5608e-05
2.50091e-06
1.68153e-05
1.52673e-06
1.73832e-05
6.8268e-07
1.73076e-05
-1.14459e-07
1.65624e-05
-9.4565e-07
1.51026e-05
-1.90812e-06
1.28723e-05
-3.1179e-06
9.84549e-06
-4.736e-06
6.11487e-06
-6.96614e-06
2.07707e-06
-1.00028e-05
-1.21935e-06
-1.38172e-05
-1.95522e-06
-1.70458e-05
-1.27719e-05
-8.53353e-07
1.24934e-05
3.89585e-06
1.096e-05
1.00532e-05
6.98805e-06
1.55372e-05
4.47068e-06
1.99167e-05
2.92385e-06
2.32508e-05
1.92476e-06
2.56916e-05
1.26325e-06
2.73851e-05
8.07413e-07
2.84411e-05
4.70728e-07
2.89264e-05
1.97401e-07
2.88631e-05
-5.11649e-08
2.82273e-05
-3.09855e-07
2.69455e-05
-6.26356e-07
2.48823e-05
-1.05468e-06
2.18379e-05
-1.69159e-06
1.7572e-05
-2.70027e-06
1.19157e-05
-4.34645e-06
5.20385e-06
-7.10532e-06
-3.66407e-07
-1.14755e-05
-1.31383e-05
1.24934e-05
2.34534e-05
3.04414e-05
3.49121e-05
3.7836e-05
3.97607e-05
4.1024e-05
4.18314e-05
4.23021e-05
4.24995e-05
4.24483e-05
4.21385e-05
4.15121e-05
4.04575e-05
3.87659e-05
3.60656e-05
3.17191e-05
2.46138e-05
1.31383e-05
)
;

boundaryField
{
    movingWall
    {
        type            calculated;
        value           uniform 0;
    }
    fixedWalls
    {
        type            calculated;
        value           uniform 0;
    }
    frontAndBack
    {
        type            empty;
        value           nonuniform 0();
    }
}


// ************************************************************************* //
