/*--------------------------------*- C++ -*----------------------------------*\
  =========                 |
  \\      /  F ield         | OpenFOAM: The Open Source CFD Toolbox
   \\    /   O peration     | Website:  https://openfoam.org
    \\  /    A nd           | Version:  6
     \\/     M anipulation  |
\*---------------------------------------------------------------------------*/
FoamFile
{
    version     2.0;
    format      ascii;
    class       volVectorField;
    location    "0.5";
    object      U;
}
// * * * * * * * * * * * * * * * * * * * * * * * * * * * * * * * * * * * * * //

dimensions      [0 1 -1 0 0 0 0];

internalField   nonuniform List<vector> 
400
(
(0.000187205 -0.00018812 0)
(-5.30816e-05 2.31708e-05 0)
(-0.00137109 0.000281457 0)
(-0.0036211 0.000459654 0)
(-0.00644498 0.000548553 0)
(-0.00945981 0.000559489 0)
(-0.0123227 0.000506449 0)
(-0.0147479 0.000403438 0)
(-0.0165137 0.00026375 0)
(-0.0174617 0.000100467 0)
(-0.0175071 -7.39404e-05 0)
(-0.0166318 -0.000245402 0)
(-0.0148993 -0.000398036 0)
(-0.0124553 -0.000514418 0)
(-0.00953148 -0.000576121 0)
(-0.0064397 -0.00056546 0)
(-0.00355656 -0.000468175 0)
(-0.00129027 -0.000276992 0)
(1.60805e-06 -9.70553e-06 0)
(0.00019883 0.000198938 0)
(-4.57424e-06 3.1442e-05 0)
(-0.00173586 0.00174428 0)
(-0.00579033 0.00366164 0)
(-0.0117827 0.0050669 0)
(-0.0189292 0.00577469 0)
(-0.0264041 0.0057936 0)
(-0.0334371 0.00520569 0)
(-0.0393651 0.00412299 0)
(-0.0436641 0.00266934 0)
(-0.0459591 0.00097874 0)
(-0.0460497 -0.000814493 0)
(-0.0439014 -0.00256053 0)
(-0.0396713 -0.00410178 0)
(-0.0337093 -0.00527452 0)
(-0.0265571 -0.00591943 0)
(-0.0189282 -0.00590073 0)
(-0.0116587 -0.00513601 0)
(-0.00562661 -0.00364565 0)
(-0.00162037 -0.00166765 0)
(1.8233e-05 2.87074e-05 0)
(-0.000259511 0.00132543 0)
(-0.00382015 0.00581847 0)
(-0.0106406 0.0102096 0)
(-0.0200053 0.0133503 0)
(-0.0307698 0.0148686 0)
(-0.0418133 0.0147576 0)
(-0.0520928 0.013185 0)
(-0.0607024 0.010405 0)
(-0.0669207 0.00671483 0)
(-0.0702356 0.0024385 0)
(-0.0703647 -0.00208034 0)
(-0.0672671 -0.00647518 0)
(-0.0611587 -0.0103594 0)
(-0.0525192 -0.0133394 0)
(-0.0420879 -0.0150414 0)
(-0.0308332 -0.0151581 0)
(-0.0198855 -0.0135185 0)
(-0.0104416 -0.0101887 0)
(-0.00366579 -0.00565348 0)
(-0.000227346 -0.00118657 0)
(-0.00047875 0.00371622 0)
(-0.00582693 0.0122918 0)
(-0.0153442 0.0198749 0)
(-0.0279005 0.0250912 0)
(-0.0419586 0.0274585 0)
(-0.0561378 0.0269923 0)
(-0.0691926 0.0239804 0)
(-0.080053 0.0188593 0)
(-0.087871 0.0121455 0)
(-0.0920463 0.00440477 0)
(-0.0922445 -0.00375868 0)
(-0.088412 -0.0117029 0)
(-0.0807921 -0.0187542 0)
(-0.0699362 -0.0242293 0)
(-0.0567047 -0.0274822 0)
(-0.0422397 -0.0279819 0)
(-0.0278993 -0.0254251 0)
(-0.0151755 -0.0198863 0)
(-0.00565694 -0.0120349 0)
(-0.000437478 -0.00347558 0)
(-0.000669089 0.00711281 0)
(-0.00771155 0.0210251 0)
(-0.0198456 0.0324572 0)
(-0.0354884 0.0399839 0)
(-0.0526767 0.0431357 0)
(-0.0697695 0.0420318 0)
(-0.08535 0.0371371 0)
(-0.098231 0.0291133 0)
(-0.107485 0.0187302 0)
(-0.11246 0.00682442 0)
(-0.112785 -0.00571344 0)
(-0.108385 -0.0179389 0)
(-0.099503 -0.0288597 0)
(-0.0867125 -0.0374641 0)
(-0.0709397 -0.0427837 0)
(-0.0534525 -0.0440021 0)
(-0.035814 -0.0406097 0)
(-0.0198304 -0.0326008 0)
(-0.0075732 -0.020719 0)
(-0.000621712 -0.00676411 0)
(-0.00084842 0.0114506 0)
(-0.00953997 0.0319376 0)
(-0.0242506 0.0478781 0)
(-0.0429212 0.0579238 0)
(-0.0631388 0.0617515 0)
(-0.0829989 0.0596927 0)
(-0.100935 0.0524684 0)
(-0.115682 0.0410172 0)
(-0.126271 0.0263922 0)
(-0.132027 0.00971589 0)
(-0.132557 -0.0078287 0)
(-0.127758 -0.0249892 0)
(-0.117836 -0.0404421 0)
(-0.103345 -0.0528185 0)
(-0.0852235 -0.0607755 0)
(-0.0648229 -0.0631307 0)
(-0.0438965 -0.0590613 0)
(-0.0245897 -0.0483551 0)
(-0.00951738 -0.0317039 0)
(-0.000802791 -0.0110187 0)
(-0.00103242 0.016718 0)
(-0.0113947 0.0450168 0)
(-0.0286916 0.0661163 0)
(-0.0503548 0.078856 0)
(-0.0734994 0.0832048 0)
(-0.0959637 0.0798383 0)
(-0.116064 0.0698314 0)
(-0.132498 0.0544595 0)
(-0.144306 0.0350861 0)
(-0.150824 0.0131206 0)
(-0.151652 -0.00997461 0)
(-0.146649 -0.0326557 0)
(-0.135955 -0.0532743 0)
(-0.120047 -0.0700875 0)
(-0.0998149 -0.0813235 0)
(-0.0766355 -0.0853353 0)
(-0.0524218 -0.0808455 0)
(-0.0296731 -0.0672697 0)
(-0.0116158 -0.0450972 0)
(-0.00100245 -0.0162807 0)
(-0.0012356 0.0229512 0)
(-0.013355 0.0603096 0)
(-0.0332871 0.087176 0)
(-0.0578956 0.102708 0)
(-0.0837991 0.107342 0)
(-0.108601 0.10226 0)
(-0.130554 0.0890076 0)
(-0.148387 0.0692649 0)
(-0.161211 0.0447254 0)
(-0.168423 0.0170707 0)
(-0.169641 -0.0119947 0)
(-0.164681 -0.0406785 0)
(-0.153582 -0.0670396 0)
(-0.136678 -0.0889635 0)
(-0.114722 -0.1042 0)
(-0.0890279 -0.110525 0)
(-0.0616008 -0.106026 0)
(-0.0352849 -0.0895272 0)
(-0.0139953 -0.0611089 0)
(-0.00124238 -0.022664 0)
(-0.00147377 0.0302309 0)
(-0.015501 0.077912 0)
(-0.0381349 0.11106 0)
(-0.0655789 0.129337 0)
(-0.0939282 0.133882 0)
(-0.120601 0.126588 0)
(-0.143875 0.109614 0)
(-0.162612 0.0851152 0)
(-0.176084 0.0551238 0)
(-0.18382 0.0215565 0)
(-0.185498 -0.0137071 0)
(-0.180893 -0.048704 0)
(-0.169902 -0.0812682 0)
(-0.152641 -0.108947 0)
(-0.129607 -0.128984 0)
(-0.101911 -0.138454 0)
(-0.0715281 -0.134593 0)
(-0.0415916 -0.115332 0)
(-0.0167816 -0.080037 0)
(-0.00154669 -0.0303532 0)
(-0.00176873 0.0386872 0)
(-0.0179291 0.0979592 0)
(-0.0433222 0.137731 0)
(-0.0733577 0.158459 0)
(-0.103589 0.16232 0)
(-0.131345 0.152188 0)
(-0.15507 0.131003 0)
(-0.173904 0.101461 0)
(-0.187407 0.0659261 0)
(-0.195335 0.0264833 0)
(-0.197485 -0.0149181 0)
(-0.193616 -0.0562743 0)
(-0.183426 -0.0952812 0)
(-0.166744 -0.129254 0)
(-0.143654 -0.154934 0)
(-0.11487 -0.168593 0)
(-0.0821255 -0.16635 0)
(-0.0487069 -0.14484 0)
(-0.0201077 -0.102244 0)
(-0.00194626 -0.0396072 0)
(-0.00215611 0.048519 0)
(-0.0207795 0.120621 0)
(-0.0489404 0.167053 0)
(-0.0810824 0.189544 0)
(-0.112237 0.1918 0)
(-0.139815 0.178029 0)
(-0.162648 0.152138 0)
(-0.180353 0.117422 0)
(-0.192935 0.0765326 0)
(-0.200489 0.0316259 0)
(-0.203017 -0.0154345 0)
(-0.200271 -0.0627385 0)
(-0.191813 -0.108112 0)
(-0.177013 -0.148701 0)
(-0.155399 -0.180846 0)
(-0.12702 -0.199956 0)
(-0.0930548 -0.200754 0)
(-0.0566671 -0.17805 0)
(-0.0241268 -0.128123 0)
(-0.00248583 -0.0507724 0)
(-0.00269874 0.0600373 0)
(-0.0242736 0.146101 0)
(-0.0550891 0.198701 0)
(-0.0884381 0.221665 0)
(-0.118952 0.220945 0)
(-0.144433 0.202529 0)
(-0.164416 0.171478 0)
(-0.179248 0.131695 0)
(-0.189552 0.0860346 0)
(-0.195921 0.0365453 0)
(-0.1986 -0.0151333 0)
(-0.197414 -0.0674586 0)
(-0.191729 -0.118524 0)
(-0.180495 -0.165636 0)
(-0.162492 -0.204893 0)
(-0.136791 -0.23088 0)
(-0.103568 -0.236679 0)
(-0.0653768 -0.214634 0)
(-0.0290272 -0.158041 0)
(-0.00323586 -0.0643124 0)
(-0.00351026 0.0737449 0)
(-0.0287568 0.174619 0)
(-0.0618299 0.232006 0)
(-0.0947699 0.253261 0)
(-0.122184 0.247625 0)
(-0.142774 0.223378 0)
(-0.15722 0.186858 0)
(-0.166872 0.142492 0)
(-0.173178 0.0931482 0)
(-0.177227 0.0406189 0)
(-0.179621 -0.0139603 0)
(-0.180342 -0.069607 0)
(-0.178621 -0.124993 0)
(-0.17298 -0.177879 0)
(-0.161368 -0.224472 0)
(-0.141581 -0.258763 0)
(-0.112235 -0.272085 0)
(-0.074478 -0.253648 0)
(-0.0350377 -0.192238 0)
(-0.00431386 -0.0808605 0)
(-0.00479533 0.0904566 0)
(-0.0347167 0.206346 0)
(-0.0689885 0.265629 0)
(-0.0986419 0.281758 0)
(-0.119221 0.268685 0)
(-0.131059 0.237397 0)
(-0.136534 0.195451 0)
(-0.138234 0.147545 0)
(-0.138445 0.0963009 0)
(-0.138852 0.0429597 0)
(-0.140407 -0.0120164 0)
(-0.143254 -0.0684331 0)
(-0.146625 -0.125824 0)
(-0.148753 -0.182789 0)
(-0.146835 -0.236139 0)
(-0.137223 -0.279808 0)
(-0.116437 -0.30359 0)
(-0.0830366 -0.293079 0)
(-0.0423777 -0.230592 0)
(-0.00591554 -0.101278 0)
(-0.00684588 0.111391 0)
(-0.0425793 0.241042 0)
(-0.0754771 0.296933 0)
(-0.0969835 0.303063 0)
(-0.10518 0.279632 0)
(-0.103406 0.240473 0)
(-0.0959271 0.193872 0)
(-0.0867486 0.144295 0)
(-0.0788759 0.0937109 0)
(-0.0743752 0.0425594 0)
(-0.0744355 -0.00954942 0)
(-0.0793937 -0.0633417 0)
(-0.0886466 -0.119398 0)
(-0.100445 -0.177517 0)
(-0.111603 -0.235743 0)
(-0.117272 -0.288875 0)
(-0.111418 -0.325803 0)
(-0.0887675 -0.329244 0)
(-0.0509851 -0.272147 0)
(-0.00829298 -0.126652 0)
(-0.00985378 0.13841 0)
(-0.0519227 0.277321 0)
(-0.0776847 0.320901 0)
(-0.0830419 0.31068 0)
(-0.0717152 0.274455 0)
(-0.0504951 0.227766 0)
(-0.0263211 0.178608 0)
(-0.00404525 0.130393 0)
(0.013164 0.0838925 0)
(0.0233107 0.0385325 0)
(0.0252448 -0.00694456 0)
(0.0184912 -0.0541217 0)
(0.00329866 -0.10461 0)
(-0.0190776 -0.159578 0)
(-0.0458243 -0.218881 0)
(-0.0717801 -0.279316 0)
(-0.0886577 -0.33129 0)
(-0.0864817 -0.354526 0)
(-0.0594509 -0.314122 0)
(-0.0114916 -0.158409 0)
(-0.0137736 0.175396 0)
(-0.0592738 0.311325 0)
(-0.0658488 0.328177 0)
(-0.0431008 0.295263 0)
(-0.00294621 0.245819 0)
(0.0423357 0.194561 0)
(0.0847761 0.147168 0)
(0.120097 0.104712 0)
(0.145991 0.0663631 0)
(0.161244 0.0305505 0)
(0.165155 -0.00460741 0)
(0.157257 -0.0412089 0)
(0.137299 -0.0815492 0)
(0.105507 -0.127949 0)
(0.0632445 -0.182297 0)
(0.014317 -0.244575 0)
(-0.0330941 -0.309389 0)
(-0.0644423 -0.358675 0)
(-0.0627659 -0.350222 0)
(-0.0152121 -0.199666 0)
(-0.0183001 0.226784 0)
(-0.0514661 0.331484 0)
(-0.0161356 0.302995 0)
(0.052645 0.244787 0)
(0.127764 0.18771 0)
(0.196077 0.139562 0)
(0.252866 0.100681 0)
(0.296631 0.0692008 0)
(0.327249 0.0428495 0)
(0.344994 0.0194995 0)
(0.34998 -0.00280685 0)
(0.341938 -0.0260758 0)
(0.320121 -0.0526023 0)
(0.283431 -0.0850807 0)
(0.230802 -0.12682 0)
(0.162363 -0.181201 0)
(0.081843 -0.249376 0)
(0.00204748 -0.323481 0)
(-0.0464009 -0.365617 0)
(-0.0185011 -0.252227 0)
(0.00098184 0.256059 0)
(0.0216971 0.296612 0)
(0.135301 0.222444 0)
(0.258749 0.154337 0)
(0.35913 0.105655 0)
(0.435889 0.0719488 0)
(0.493017 0.0484883 0)
(0.533858 0.031644 0)
(0.561002 0.0188204 0)
(0.576236 0.00820282 0)
(0.580428 -0.00156453 0)
(0.573661 -0.0117312 0)
(0.554896 -0.0239008 0)
(0.522115 -0.0399723 0)
(0.471979 -0.0630249 0)
(0.399757 -0.0977879 0)
(0.299475 -0.150742 0)
(0.169444 -0.227839 0)
(0.0408165 -0.314328 0)
(0.00501446 -0.274289 0)
(0.267416 0.116491 0)
(0.377133 0.101432 0)
(0.538777 0.0535714 0)
(0.658122 0.0285245 0)
(0.732101 0.0165351 0)
(0.779107 0.009832 0)
(0.809998 0.00583615 0)
(0.830154 0.0033915 0)
(0.84262 0.00179069 0)
(0.849165 0.000617279 0)
(0.850503 -0.000416527 0)
(0.847096 -0.0014219 0)
(0.837997 -0.00281121 0)
(0.821661 -0.00490587 0)
(0.795182 -0.00836696 0)
(0.752857 -0.0144179 0)
(0.683132 -0.0256869 0)
(0.565492 -0.0500999 0)
(0.398162 -0.0994447 0)
(0.276536 -0.118106 0)
)
;

boundaryField
{
    movingWall
    {
        type            fixedValue;
        value           uniform (1 0 0);
    }
    fixedWalls
    {
        type            noSlip;
    }
    frontAndBack
    {
        type            empty;
    }
}


// ************************************************************************* //
