/*--------------------------------*- C++ -*----------------------------------*\
| =========                 |                                                 |
| \\      /  F ield         | OpenFOAM: The Open Source CFD Toolbox           |
|  \\    /   O peration     | Version:  5.0                                   |
|   \\  /    A nd           | Web:      www.OpenFOAM.org                      |
|    \\/     M anipulation  |                                                 |
\*---------------------------------------------------------------------------*/
FoamFile
{
    version     2.0;
    format      ascii;
    class       volScalarField;
    location    "0.2";
    object      Co;
}
// * * * * * * * * * * * * * * * * * * * * * * * * * * * * * * * * * * * * * //

dimensions      [0 0 0 0 0 0 0];

internalField   nonuniform List<scalar> 
400
(
0.00028479
0.000728841
0.00228469
0.00490826
0.00791924
0.0109435
0.0136589
0.0158076
0.0171979
0.0177064
0.0177064
0.0172802
0.0159421
0.0137969
0.0110357
0.00793629
0.00485353
0.00219414
0.000681975
0.000313588
0.000683913
0.00433482
0.0105169
0.0179062
0.0256464
0.0329574
0.039168
0.0437431
0.0462983
0.0466115
0.0465292
0.0463987
0.0439903
0.0394726
0.033209
0.025756
0.0178443
0.0103308
0.00413467
0.000615876
0.00224275
0.0107876
0.0221955
0.0345889
0.0466424
0.0572834
0.0656602
0.0711433
0.0733281
0.0720451
0.0718102
0.0733975
0.0714983
0.0661825
0.0577932
0.0469632
0.0346192
0.0219626
0.0104555
0.00204831
0.00514555
0.0194484
0.036682
0.0542397
0.0703495
0.0837062
0.093374
0.0987418
0.0994975
0.0956226
0.0951681
0.0995472
0.0993002
0.094283
0.0846894
0.0711018
0.0545425
0.0365078
0.0190081
0.00483342
0.00901597
0.0302398
0.0538788
0.0767438
0.0966997
0.112286
0.122567
0.127039
0.125561
0.118329
0.117527
0.1256
0.127952
0.124139
0.114102
0.0982659
0.0776547
0.0539919
0.0297879
0.00858727
0.0138129
0.0431703
0.0738385
0.102166
0.125765
0.143125
0.153413
0.156317
0.151934
0.14072
0.139332
0.151916
0.157746
0.156005
0.14628
0.128718
0.104225
0.0746471
0.0429218
0.0133092
0.019546
0.0583094
0.0966684
0.130594
0.157578
0.176202
0.185858
0.186533
0.178634
0.162909
0.160541
0.178404
0.188596
0.189862
0.181319
0.162686
0.134577
0.0988085
0.0586455
0.0190733
0.0262712
0.075779
0.122484
0.16205
0.192011
0.211224
0.219485
0.217205
0.205186
0.184499
0.180576
0.204426
0.2199
0.225243
0.218976
0.20019
0.168966
0.126853
0.0772922
0.0260262
0.0340895
0.0957487
0.151375
0.196409
0.228649
0.24749
0.253358
0.247261
0.230493
0.204478
0.198245
0.22867
0.250364
0.261036
0.258466
0.240867
0.207448
0.159132
0.0992783
0.0343873
0.0431584
0.118443
0.183376
0.233314
0.266661
0.283717
0.285845
0.274864
0.252672
0.221074
0.211637
0.249
0.277814
0.295245
0.298205
0.283734
0.249713
0.195893
0.125089
0.0444586
0.0537255
0.144169
0.218425
0.272054
0.304606
0.317816
0.314386
0.297196
0.268863
0.231579
0.218012
0.262301
0.29897
0.324715
0.335495
0.326874
0.294829
0.237136
0.155262
0.0566524
0.0661998
0.173353
0.256275
0.31134
0.340134
0.346575
0.335201
0.310207
0.275013
0.232169
0.213706
0.264331
0.309235
0.344817
0.366123
0.366995
0.340853
0.282381
0.190343
0.0715484
0.0812829
0.20657
0.296274
0.348892
0.369496
0.365206
0.342924
0.308351
0.265693
0.21775
0.194075
0.24966
0.302544
0.349169
0.383903
0.398831
0.384214
0.330238
0.230785
0.089998
0.100189
0.244463
0.336813
0.380625
0.386736
0.366689
0.330172
0.284353
0.234004
0.181933
0.153525
0.211726
0.271377
0.329455
0.380212
0.414359
0.418751
0.377578
0.276639
0.113287
0.124937
0.287229
0.374003
0.399102
0.382382
0.340918
0.287131
0.229135
0.171702
0.117222
0.0856986
0.14316
0.207065
0.275547
0.343684
0.401882
0.434221
0.417941
0.326681
0.14329
0.158415
0.332753
0.398647
0.390729
0.341558
0.273794
0.201401
0.136483
0.092428
0.058419
0.0303574
0.0692532
0.11139
0.17619
0.260372
0.345205
0.414187
0.438533
0.376026
0.18219
0.20303
0.371087
0.389938
0.331304
0.259764
0.227831
0.224473
0.21893
0.207844
0.188429
0.167928
0.195199
0.213821
0.226268
0.235962
0.260572
0.333513
0.415037
0.410373
0.230422
0.254506
0.370143
0.318129
0.284096
0.304334
0.327408
0.347753
0.361749
0.3671
0.36214
0.351332
0.365739
0.369193
0.363011
0.349224
0.331487
0.315899
0.341791
0.393338
0.27959
0.270207
0.318666
0.341717
0.400663
0.457549
0.504547
0.540344
0.565214
0.579709
0.584135
0.581489
0.584999
0.578232
0.56078
0.531798
0.490571
0.438115
0.381908
0.34417
0.282174
0.270207
0.491557
0.627326
0.71212
0.766517
0.801915
0.825056
0.839856
0.848502
0.852126
0.852126
0.851147
0.845374
0.8339
0.814742
0.784032
0.734484
0.652672
0.514208
0.282174
)
;

boundaryField
{
    movingWall
    {
        type            zeroGradient;
    }
    fixedWalls
    {
        type            zeroGradient;
    }
    frontAndBack
    {
        type            empty;
    }
}


// ************************************************************************* //
