/*--------------------------------*- C++ -*----------------------------------*\
| =========                 |                                                 |
| \\      /  F ield         | OpenFOAM: The Open Source CFD Toolbox           |
|  \\    /   O peration     | Version:  5.0                                   |
|   \\  /    A nd           | Web:      www.OpenFOAM.org                      |
|    \\/     M anipulation  |                                                 |
\*---------------------------------------------------------------------------*/
FoamFile
{
    version     2.0;
    format      ascii;
    class       volVectorField;
    location    "0.2";
    object      wallShearStress;
}
// * * * * * * * * * * * * * * * * * * * * * * * * * * * * * * * * * * * * * //

dimensions      [0 2 -2 0 0 0 0];

internalField   uniform (0 0 0);

boundaryField
{
    movingWall
    {
        type            calculated;
        value           nonuniform List<vector> 
20
(
(3.07518 -1.24307 0)
(2.34491 -0.851893 0)
(1.68654 -0.591287 0)
(1.25153 -0.357501 0)
(0.995971 -0.211491 0)
(0.83504 -0.129018 0)
(0.728343 -0.0803296 0)
(0.658019 -0.0493139 0)
(0.614124 -0.0277547 0)
(0.591014 -0.010983 0)
(0.586 0.00398881 0)
(0.598657 0.0195892 0)
(0.630815 0.0386307 0)
(0.687262 0.0655399 0)
(0.777355 0.108515 0)
(0.918777 0.184765 0)
(1.15269 0.329285 0)
(1.57561 0.576372 0)
(2.25988 0.865384 0)
(3.04206 1.28026 0)
)
;
    }
    fixedWalls
    {
        type            calculated;
        value           nonuniform List<vector> 
60
(
(-0.00163094 0.00082434 0)
(0.00130693 0.00145738 0)
(0.00524921 -0.00351532 0)
(0.00880347 -0.0131638 0)
(0.0119725 -0.0268202 0)
(0.0149668 -0.0441821 0)
(0.0179939 -0.0651885 0)
(0.0212418 -0.0899737 0)
(0.0249019 -0.11884 0)
(0.0292275 -0.152263 0)
(0.0346436 -0.190954 0)
(0.0419388 -0.236037 0)
(0.0525974 -0.289412 0)
(0.0693025 -0.354443 0)
(0.0965091 -0.437167 0)
(0.140319 -0.548946 0)
(0.201414 -0.714741 0)
(0.224897 -0.990237 0)
(-0.105167 -1.4567 0)
(-1.88319 -2.27668 0)
(-0.00175416 -0.0008238 0)
(0.00103442 -0.0016533 0)
(0.00484273 0.00297587 0)
(0.00829112 0.0121683 0)
(0.0114173 0.0253065 0)
(0.0144984 0.0422012 0)
(0.017828 0.0629945 0)
(0.0216948 0.0881264 0)
(0.0264015 0.118317 0)
(0.0323204 0.15457 0)
(0.0399928 0.19823 0)
(0.0503059 0.25112 0)
(0.0647862 0.315848 0)
(0.0859849 0.396372 0)
(0.117725 0.498946 0)
(0.16407 0.634398 0)
(0.2193 0.825666 0)
(0.212867 1.11681 0)
(-0.17706 1.53726 0)
(-1.94668 2.27062 0)
(-0.000875166 0.00159699 0)
(-0.00137963 -0.00154841 0)
(0.00393338 -0.00542479 0)
(0.0134391 -0.00818424 0)
(0.0253246 -0.00956597 0)
(0.0379525 -0.00967609 0)
(0.0498952 -0.0087157 0)
(0.0599814 -0.00691092 0)
(0.0673097 -0.00448546 0)
(0.0712477 -0.00165894 0)
(0.0714363 0.00134298 0)
(0.0678067 0.00427771 0)
(0.0606053 0.00687967 0)
(0.0504193 0.00886205 0)
(0.0381929 0.00992968 0)
(0.0252191 0.00980857 0)
(0.0130814 0.00829971 0)
(0.00353764 0.00536399 0)
(-0.00160338 0.00138485 0)
(-0.000899064 -0.00170786 0)
)
;
    }
    frontAndBack
    {
        type            empty;
    }
}


// ************************************************************************* //
