/*--------------------------------*- C++ -*----------------------------------*\
| =========                 |                                                 |
| \\      /  F ield         | OpenFOAM: The Open Source CFD Toolbox           |
|  \\    /   O peration     | Version:  5.0                                   |
|   \\  /    A nd           | Web:      www.OpenFOAM.org                      |
|    \\/     M anipulation  |                                                 |
\*---------------------------------------------------------------------------*/
FoamFile
{
    version     2.0;
    format      ascii;
    class       volScalarField;
    location    "5";
    object      k;
}
// * * * * * * * * * * * * * * * * * * * * * * * * * * * * * * * * * * * * * //

dimensions      [0 2 -2 0 0 0 0];

internalField   nonuniform List<scalar> 
400
(
6.11645e-10
3.79631e-09
1.19675e-08
7.40195e-08
3.36433e-07
8.36108e-07
1.38209e-06
1.85677e-06
2.25212e-06
2.56454e-06
2.837e-06
3.09779e-06
3.40654e-06
3.56078e-06
3.56327e-06
2.94535e-06
2.18863e-06
1.12945e-06
6.05866e-07
3.05365e-07
7.72963e-09
9.92157e-08
3.13758e-07
9.83965e-07
2.74904e-06
6.67271e-06
1.33191e-05
2.18461e-05
3.0901e-05
3.81317e-05
4.28383e-05
4.46372e-05
4.48755e-05
3.95641e-05
3.41221e-05
2.56976e-05
1.71118e-05
7.49366e-06
2.96192e-06
1.02326e-06
6.9757e-08
6.27739e-07
1.77763e-06
5.09004e-06
1.41371e-05
3.50062e-05
6.93454e-05
0.000116972
0.000152452
0.000170531
0.000177262
0.000177364
0.000159494
0.000141389
0.000119082
9.10444e-05
6.15179e-05
2.70964e-05
8.4172e-06
1.89944e-06
2.79202e-07
2.1205e-06
5.74328e-06
1.7243e-05
4.93425e-05
0.000123102
0.000207462
0.000250598
0.000268423
0.000273056
0.000260974
0.000233303
0.000210117
0.000187475
0.000167905
0.000152148
0.000127925
7.58477e-05
2.02156e-05
2.82811e-06
6.01449e-07
4.62133e-06
1.41748e-05
4.64823e-05
0.00012524
0.00022334
0.000268444
0.000284872
0.000286897
0.0002736
0.000245204
0.000212925
0.000191759
0.000178983
0.00017126
0.000165492
0.000157927
0.000123504
3.85332e-05
3.79355e-06
1.2714e-06
1.02748e-05
3.1861e-05
8.88092e-05
0.000188176
0.000257684
0.000280474
0.000285118
0.000274931
0.000236508
0.000178465
0.000141542
0.000127289
0.000124116
0.000135045
0.000156386
0.000167777
0.000156337
6.3516e-05
4.75086e-06
1.80055e-06
1.51472e-05
4.59914e-05
0.000117615
0.000220441
0.000266108
0.000278155
0.000274551
0.000236631
0.000171814
0.000116842
9.48574e-05
8.93813e-05
9.31518e-05
0.000111365
0.000131695
0.000165138
0.000172583
8.79986e-05
5.64987e-06
1.88846e-06
1.92605e-05
5.69571e-05
0.000137825
0.000231378
0.000264149
0.000269227
0.000247949
0.000195546
0.00012902
8.66073e-05
7.27933e-05
7.06333e-05
7.88779e-05
9.79581e-05
0.000120898
0.000161884
0.000187828
0.000112294
6.54508e-06
1.74264e-06
2.02211e-05
5.99925e-05
0.000142552
0.000230548
0.00025707
0.000253574
0.000222824
0.000167977
0.000104918
7.05593e-05
5.99076e-05
5.8166e-05
6.42184e-05
8.15554e-05
0.000116281
0.000151997
0.000201242
0.000134118
7.40054e-06
1.33384e-06
1.9547e-05
5.85755e-05
0.000139575
0.00022632
0.000248935
0.000239782
0.000206189
0.000153663
9.38889e-05
6.18068e-05
5.13461e-05
4.9312e-05
5.43057e-05
7.05582e-05
0.000114958
0.000148554
0.000215798
0.000154224
8.27564e-06
1.01758e-06
1.75962e-05
5.43736e-05
0.000131264
0.000215273
0.000237667
0.000228433
0.000197224
0.000148492
9.42553e-05
6.02049e-05
4.70611e-05
4.64554e-05
5.14992e-05
6.70307e-05
0.000116696
0.000148077
0.00022778
0.000169734
9.15517e-06
7.82125e-07
1.39681e-05
4.5952e-05
0.000115315
0.000199437
0.000225623
0.000219962
0.000196594
0.000152997
0.000102049
6.67587e-05
5.03361e-05
4.7897e-05
5.20913e-05
6.72085e-05
0.000118767
0.000154063
0.000240925
0.000179309
1.01454e-05
5.65271e-07
9.60755e-06
3.51982e-05
9.34774e-05
0.00017463
0.000208553
0.000207781
0.000195273
0.000164541
0.000119984
8.36547e-05
6.15153e-05
5.67366e-05
6.13367e-05
7.75371e-05
0.000129282
0.000159822
0.000248876
0.000182786
1.12813e-05
3.6692e-07
5.89171e-06
2.43027e-05
6.83006e-05
0.000145332
0.000188628
0.00019392
0.000189691
0.000176173
0.000148094
0.000115025
8.67416e-05
7.66009e-05
8.07668e-05
9.60822e-05
0.000140751
0.00016561
0.00025216
0.000181132
1.27513e-05
1.93077e-07
3.05758e-06
1.45917e-05
4.32533e-05
0.00010726
0.00015732
0.000175206
0.000176407
0.000172686
0.000162676
0.000145366
0.000124729
0.000109574
0.000111233
0.000120503
0.000146103
0.000168148
0.000252115
0.000165708
1.35269e-05
8.03481e-08
1.51072e-06
7.8358e-06
2.46255e-05
6.732e-05
0.000117824
0.000145411
0.000157197
0.000160428
0.000158681
0.00015283
0.000145585
0.000133237
0.000129352
0.00013233
0.000146957
0.000168965
0.000238051
0.000148581
1.41066e-05
3.11737e-08
7.54622e-07
4.00872e-06
1.26118e-05
3.28033e-05
7.10021e-05
0.000101401
0.000118773
0.0001299
0.000138922
0.000140179
0.000139358
0.000137296
0.000133437
0.000134856
0.000144667
0.000169498
0.000210984
0.000121096
1.42254e-05
3.82356e-08
4.55627e-07
2.08243e-06
6.22899e-06
1.48587e-05
3.39994e-05
5.49721e-05
7.15664e-05
8.17907e-05
8.98472e-05
9.59327e-05
0.000100271
0.000102339
0.000106229
0.000114434
0.00013515
0.000180026
0.000195142
9.73607e-05
1.32283e-05
1.10882e-07
6.39311e-07
1.85442e-06
4.26896e-06
9.23e-06
1.52764e-05
2.64192e-05
3.76496e-05
4.61185e-05
6.22341e-05
7.29036e-05
9.3306e-05
0.000109592
0.000142798
0.000171503
0.000234641
0.000268375
0.000211132
6.34401e-05
9.96732e-06
4.54924e-08
1.0695e-07
3.25255e-07
5.05059e-07
9.93922e-07
1.46922e-06
2.52042e-06
3.33223e-06
4.33275e-06
4.98162e-06
6.28252e-06
7.56147e-06
1.02273e-05
1.13169e-05
1.36133e-05
1.34917e-05
1.31214e-05
1.23341e-05
1.04514e-05
6.10861e-06
)
;

boundaryField
{
    movingWall
    {
        type            kqRWallFunction;
        value           nonuniform List<scalar> 
20
(
4.54924e-08
1.0695e-07
3.25255e-07
5.05059e-07
9.93922e-07
1.46922e-06
2.52042e-06
3.33223e-06
4.33275e-06
4.98162e-06
6.28252e-06
7.56147e-06
1.02273e-05
1.13169e-05
1.36133e-05
1.34917e-05
1.31214e-05
1.23341e-05
1.04514e-05
6.10861e-06
)
;
    }
    fixedWalls
    {
        type            kqRWallFunction;
        value           nonuniform List<scalar> 
60
(
6.11645e-10
7.72963e-09
6.9757e-08
2.79202e-07
6.01449e-07
1.2714e-06
1.80055e-06
1.88846e-06
1.74264e-06
1.33384e-06
1.01758e-06
7.82125e-07
5.65271e-07
3.6692e-07
1.93077e-07
8.03481e-08
3.11737e-08
3.82356e-08
1.10882e-07
4.54924e-08
3.05365e-07
1.02326e-06
1.89944e-06
2.82811e-06
3.79355e-06
4.75086e-06
5.64987e-06
6.54508e-06
7.40054e-06
8.27564e-06
9.15517e-06
1.01454e-05
1.12813e-05
1.27513e-05
1.35269e-05
1.41066e-05
1.42254e-05
1.32283e-05
9.96732e-06
6.10861e-06
6.11645e-10
3.79631e-09
1.19675e-08
7.40195e-08
3.36433e-07
8.36108e-07
1.38209e-06
1.85677e-06
2.25212e-06
2.56454e-06
2.837e-06
3.09779e-06
3.40654e-06
3.56078e-06
3.56327e-06
2.94535e-06
2.18863e-06
1.12945e-06
6.05866e-07
3.05365e-07
)
;
    }
    frontAndBack
    {
        type            empty;
    }
}


// ************************************************************************* //
