/*--------------------------------*- C++ -*----------------------------------*\
| =========                 |                                                 |
| \\      /  F ield         | OpenFOAM: The Open Source CFD Toolbox           |
|  \\    /   O peration     | Version:  5.0                                   |
|   \\  /    A nd           | Web:      www.OpenFOAM.org                      |
|    \\/     M anipulation  |                                                 |
\*---------------------------------------------------------------------------*/
FoamFile
{
    version     2.0;
    format      ascii;
    class       volScalarField;
    location    "5";
    object      nut;
}
// * * * * * * * * * * * * * * * * * * * * * * * * * * * * * * * * * * * * * //

dimensions      [0 2 -1 0 0 0 0];

internalField   nonuniform List<scalar> 
400
(
4.77847e-12
2.96587e-11
9.3496e-11
5.78277e-10
2.62838e-09
6.53209e-09
1.07975e-08
1.4506e-08
1.75947e-08
2.00355e-08
2.21641e-08
2.42015e-08
2.66136e-08
2.78186e-08
2.78381e-08
2.30105e-08
1.70986e-08
8.82379e-09
4.73333e-09
2.38566e-09
6.03878e-11
2.55847e-09
5.17059e-09
1.27049e-08
3.40283e-08
9.14148e-08
2.13051e-07
4.07677e-07
6.90156e-07
9.56058e-07
1.20027e-06
1.31016e-06
1.33704e-06
1.08692e-06
8.83474e-07
5.8599e-07
3.34143e-07
1.16386e-07
3.30543e-08
7.99422e-09
5.44976e-10
1.52807e-08
3.43519e-08
9.34026e-08
2.9056e-07
9.34974e-07
2.23628e-06
4.51502e-06
6.50819e-06
7.72024e-06
8.24091e-06
8.30157e-06
7.28851e-06
6.11273e-06
4.68023e-06
3.06561e-06
1.63583e-06
5.20212e-07
1.02269e-07
1.48394e-08
2.18127e-09
5.21122e-08
1.34518e-07
4.33643e-07
1.60016e-06
5.26178e-06
1.04241e-05
1.46433e-05
1.70119e-05
1.8628e-05
1.84545e-05
1.67497e-05
1.50233e-05
1.26059e-05
1.01826e-05
7.73559e-06
4.90707e-06
1.93549e-06
2.8273e-07
2.20946e-08
4.69882e-09
1.20018e-07
4.00459e-07
1.55897e-06
5.90391e-06
1.32828e-05
1.86965e-05
2.31443e-05
2.53749e-05
2.61018e-05
2.42404e-05
2.13247e-05
1.88165e-05
1.64019e-05
1.39289e-05
1.10994e-05
7.68033e-06
3.80306e-06
6.00079e-07
2.96371e-08
9.93283e-09
2.9245e-07
1.08201e-06
3.83847e-06
1.16134e-05
1.96428e-05
2.53308e-05
2.97948e-05
3.10781e-05
2.82741e-05
2.18908e-05
1.75037e-05
1.53434e-05
1.42749e-05
1.41938e-05
1.39788e-05
1.06458e-05
6.01599e-06
1.10648e-06
3.71161e-08
1.40668e-08
4.74105e-07
1.81698e-06
6.21822e-06
1.65383e-05
2.45192e-05
3.06257e-05
3.41811e-05
3.13755e-05
2.35302e-05
1.62141e-05
1.32378e-05
1.25191e-05
1.28292e-05
1.43418e-05
1.47391e-05
1.26958e-05
7.56469e-06
1.66015e-06
4.41396e-08
1.47536e-08
6.38061e-07
2.5729e-06
8.44954e-06
1.9981e-05
2.80396e-05
3.4072e-05
3.45083e-05
2.83384e-05
1.90363e-05
1.30237e-05
1.15543e-05
1.2004e-05
1.37349e-05
1.57636e-05
1.66211e-05
1.55863e-05
9.75956e-06
2.30137e-06
5.11335e-08
1.36144e-08
7.18174e-07
2.97615e-06
9.67393e-06
2.17583e-05
3.00773e-05
3.50262e-05
3.32613e-05
2.57519e-05
1.62948e-05
1.1491e-05
1.10409e-05
1.14512e-05
1.27187e-05
1.47751e-05
1.77031e-05
1.65374e-05
1.14314e-05
2.90217e-06
5.78167e-08
1.04206e-08
6.88004e-07
3.13883e-06
1.00695e-05
2.25747e-05
3.08914e-05
3.49246e-05
3.22967e-05
2.4567e-05
1.52293e-05
1.08957e-05
1.03522e-05
1.04547e-05
1.13156e-05
1.35669e-05
1.83956e-05
1.7663e-05
1.33451e-05
3.5212e-06
6.46534e-08
7.94984e-09
5.77126e-07
3.01327e-06
9.8163e-06
2.16551e-05
3.0133e-05
3.42571e-05
3.19267e-05
2.44203e-05
1.57611e-05
1.09609e-05
9.76723e-06
1.00594e-05
1.08602e-05
1.31225e-05
1.90021e-05
1.82323e-05
1.46116e-05
4.02602e-06
7.15248e-08
6.11035e-09
3.9731e-07
2.50308e-06
8.58752e-06
1.98129e-05
2.83464e-05
3.28462e-05
3.22023e-05
2.57156e-05
1.74608e-05
1.20663e-05
1.02109e-05
1.02016e-05
1.08725e-05
1.30973e-05
1.93876e-05
1.91629e-05
1.56994e-05
4.39823e-06
7.92612e-08
4.41618e-09
2.17197e-07
1.79144e-06
6.79876e-06
1.68046e-05
2.54435e-05
3.03849e-05
3.17336e-05
2.77521e-05
2.05756e-05
1.48535e-05
1.18863e-05
1.14923e-05
1.21943e-05
1.443e-05
2.04706e-05
1.97222e-05
1.62408e-05
4.54757e-06
8.8135e-08
2.86656e-09
1.1206e-07
1.08676e-06
4.69083e-06
1.31652e-05
2.16774e-05
2.70302e-05
2.99504e-05
2.93861e-05
2.52535e-05
2.00252e-05
1.58251e-05
1.46002e-05
1.51738e-05
1.7047e-05
2.15666e-05
1.98107e-05
1.60357e-05
4.49591e-06
9.96192e-08
1.50841e-09
4.82541e-08
5.27251e-07
2.65146e-06
8.916e-06
1.64483e-05
2.22446e-05
2.6027e-05
2.76697e-05
2.70664e-05
2.46621e-05
2.17492e-05
1.96416e-05
1.96633e-05
2.02138e-05
2.13852e-05
1.92034e-05
1.53953e-05
3.99783e-06
1.05679e-07
6.27719e-10
2.27882e-08
2.27701e-07
1.24682e-06
4.88834e-06
1.09392e-05
1.64366e-05
2.07465e-05
2.34875e-05
2.46387e-05
2.44389e-05
2.37774e-05
2.2075e-05
2.11164e-05
2.05053e-05
1.98548e-05
1.76172e-05
1.35467e-05
3.44846e-06
1.10207e-07
2.43545e-10
1.21126e-08
1.06604e-07
5.04677e-07
1.85183e-06
5.23669e-06
9.23203e-06
1.28413e-05
1.59908e-05
1.85937e-05
1.96875e-05
2.01281e-05
1.98608e-05
1.89243e-05
1.80083e-05
1.66461e-05
1.48576e-05
1.04669e-05
2.54805e-06
1.11136e-07
2.98716e-10
9.25466e-09
5.76093e-08
2.27628e-07
6.98757e-07
1.98842e-06
3.85538e-06
5.8381e-06
7.5755e-06
9.11967e-06
1.03795e-05
1.11958e-05
1.13656e-05
1.14424e-05
1.13436e-05
1.10711e-05
1.11493e-05
7.26021e-06
1.68315e-06
1.03346e-07
8.66269e-10
1.63427e-08
5.10406e-08
1.34722e-07
3.30105e-07
6.09893e-07
1.16839e-06
1.75834e-06
2.24779e-06
3.0127e-06
3.45637e-06
4.18339e-06
4.61227e-06
5.35526e-06
5.71778e-06
6.74399e-06
6.53576e-06
3.80293e-06
7.17073e-07
7.78697e-08
3.55409e-10
8.35549e-10
2.54105e-09
3.94577e-09
7.76501e-09
1.14783e-08
1.96908e-08
2.60331e-08
3.38496e-08
3.89189e-08
4.90822e-08
5.9074e-08
7.99009e-08
8.84136e-08
1.06354e-07
1.05404e-07
1.02511e-07
9.63605e-08
8.16512e-08
4.77235e-08
)
;

boundaryField
{
    movingWall
    {
        type            nutkWallFunction;
        Cmu             0.09;
        kappa           0.41;
        E               9.8;
        value           uniform 0;
    }
    fixedWalls
    {
        type            nutkWallFunction;
        Cmu             0.09;
        kappa           0.41;
        E               9.8;
        value           uniform 0;
    }
    frontAndBack
    {
        type            empty;
    }
}


// ************************************************************************* //
