/*--------------------------------*- C++ -*----------------------------------*\
| =========                 |                                                 |
| \\      /  F ield         | OpenFOAM: The Open Source CFD Toolbox           |
|  \\    /   O peration     | Version:  5.0                                   |
|   \\  /    A nd           | Web:      www.OpenFOAM.org                      |
|    \\/     M anipulation  |                                                 |
\*---------------------------------------------------------------------------*/
FoamFile
{
    version     2.0;
    format      ascii;
    class       volScalarField;
    location    "5";
    object      omega;
}
// * * * * * * * * * * * * * * * * * * * * * * * * * * * * * * * * * * * * * //

dimensions      [0 0 -1 0 0 0 0];

internalField   nonuniform List<scalar> 
400
(
128
128
128
128
128
128
128
128
128
128
128
128
128
128
128
128
128
128
128
128
128
38.7794
60.6814
77.4474
80.7869
72.9937
62.516
53.5868
44.774
39.8844
35.6905
34.07
33.5633
36.4001
38.6226
43.8532
51.2109
64.3865
89.6078
128
128
41.0804
51.7476
54.4957
48.6546
37.4408
31.0092
25.9074
23.4246
22.0888
21.51
21.3652
21.8829
23.1302
25.4436
29.6986
37.6065
52.0872
82.3048
128
128
40.6911
42.6954
39.763
30.8361
23.3956
19.9021
17.1135
15.7786
14.6584
14.1414
13.9288
13.9861
14.872
16.4894
19.6685
26.0696
39.1877
71.5015
128
128
38.5052
35.3964
29.8161
21.213
16.8143
14.358
12.3085
11.3063
10.482
10.1155
9.98491
10.191
10.9124
12.2953
14.9099
20.5626
32.4748
64.2136
128
128
35.1334
29.4461
23.1366
16.2034
13.1185
11.0725
9.56939
8.84647
8.3648
8.15249
8.08639
8.29601
8.69473
9.51437
11.1874
15.7599
25.9869
57.4035
128
128
31.9491
25.3119
18.9146
13.3291
10.8531
9.08238
8.03223
7.5419
7.30187
7.20618
7.16563
7.13962
7.26095
7.76504
8.93508
13.0073
22.8142
53.0065
128
128
30.186
22.1373
16.3116
11.5799
9.42057
7.90173
7.1852
6.90039
6.77758
6.64999
6.30013
5.88413
5.74286
6.2142
7.2738
10.3863
19.2455
48.7945
128
128
28.1562
20.1578
14.7357
10.5959
8.54699
7.23955
6.69919
6.52291
6.43876
6.14041
5.42595
5.07947
5.04913
5.5198
6.5684
9.19113
17.6043
46.2129
128
128
28.4112
18.6615
13.8613
10.0254
8.05838
6.86569
6.3842
6.25487
6.16503
5.67256
4.95991
4.71671
4.79919
5.20078
6.2492
8.41049
16.1706
43.7988
128
128
30.4893
18.0447
13.3721
9.941
7.88724
6.66818
6.1774
6.08066
5.98025
5.4927
4.81827
4.61812
4.74203
5.10807
6.14121
8.12172
15.589
42.1594
128
128
35.1566
18.3582
13.4282
10.066
7.95949
6.69673
6.10498
5.94957
5.8445
5.53267
4.92962
4.69503
4.79113
5.13147
6.12591
8.03965
15.3462
40.7685
128
128
44.2342
19.648
13.7492
10.3918
8.1967
6.83829
6.1535
5.92896
5.83139
5.63198
5.17533
4.93694
5.02993
5.37332
6.31551
8.10368
15.3241
40.1942
128
128
52.5765
22.3625
14.5604
11.0391
8.70161
7.17422
6.3335
5.99513
5.86429
5.74401
5.48127
5.24656
5.32276
5.63632
6.52634
8.35959
15.7249
40.2882
128
128
63.3641
27.6751
16.313
12.0301
9.56454
7.87635
6.77784
6.24099
6.01024
5.89431
5.73488
5.57869
5.65685
5.96142
6.83198
8.75619
16.3761
41.4494
128
128
66.2939
34.4127
19.7506
13.7716
10.7707
8.84683
7.577
6.83036
6.44031
6.25356
6.12281
6.03564
6.12565
6.45349
7.40159
9.59094
17.5726
43.0862
128
128
62.3005
37.6038
24.9898
17.714
13.5586
10.9836
9.24927
8.12346
7.47141
7.1202
6.92353
6.9129
7.05111
7.48854
8.69076
11.4082
20.1572
47.5252
128
128
49.2322
36.1474
27.3647
21.2645
17.0987
14.2585
12.2585
10.7967
9.85202
9.24254
8.9561
9.00425
9.28378
10.088
12.2075
16.1469
26.8783
57.8442
128
128
39.1189
36.3322
31.6871
27.9608
25.0478
22.6116
21.412
20.5173
20.6573
21.0925
22.3039
23.761
26.6649
29.9947
34.7926
41.0625
55.5181
88.4709
128
128
128
128
128
128
128
128
128
128
128
128
128
128
128
128
128
128
128
128
128
)
;

boundaryField
{
    movingWall
    {
        Cmu             0.09;
        kappa           0.41;
        E               9.8;
        beta1           0.075;
        blended         false;
        type            omegaWallFunction;
        value           nonuniform List<scalar> 
20
(
128
128
128
128
128
128
128
128
128
128
128
128
128
128
128
128
128
128
128
128
)
;
    }
    fixedWalls
    {
        Cmu             0.09;
        kappa           0.41;
        E               9.8;
        beta1           0.075;
        blended         false;
        type            omegaWallFunction;
        value           nonuniform List<scalar> 
60
(
128
128
128
128
128
128
128
128
128
128
128
128
128
128
128
128
128
128
128
128
128
128
128
128
128
128
128
128
128
128
128
128
128
128
128
128
128
128
128
128
128
128
128
128
128
128
128
128
128
128
128
128
128
128
128
128
128
128
128
128
)
;
    }
    frontAndBack
    {
        type            empty;
    }
}


// ************************************************************************* //
