/*--------------------------------*- C++ -*----------------------------------*\
| =========                 |                                                 |
| \\      /  F ield         | OpenFOAM: The Open Source CFD Toolbox           |
|  \\    /   O peration     | Version:  5.0                                   |
|   \\  /    A nd           | Web:      www.OpenFOAM.org                      |
|    \\/     M anipulation  |                                                 |
\*---------------------------------------------------------------------------*/
FoamFile
{
    version     2.0;
    format      ascii;
    class       volScalarField;
    location    "5";
    object      p;
}
// * * * * * * * * * * * * * * * * * * * * * * * * * * * * * * * * * * * * * //

dimensions      [0 2 -2 0 0 0 0];

internalField   nonuniform List<scalar> 
400
(
8.92381e-08
-6.99137e-05
-0.00010428
-0.000214509
-0.000129815
-0.000750888
-0.00210535
-0.00363944
-0.00498878
-0.00600451
-0.00659948
-0.00671352
-0.00627482
-0.0051922
-0.00331769
-0.000602985
0.00288521
0.00668246
0.00952316
0.0106271
1.8104e-05
-4.49567e-05
-7.93205e-05
-0.000277261
-0.000838144
-0.00184707
-0.00320076
-0.0045469
-0.00577958
-0.00669357
-0.00723897
-0.00735045
-0.00699901
-0.00609024
-0.00451661
-0.0021961
0.000871227
0.0044673
0.00764505
0.00941212
0.000148868
9.69254e-06
-0.00032717
-0.000989226
-0.00204206
-0.00337191
-0.00474793
-0.00606424
-0.0071875
-0.00795964
-0.0083873
-0.00843771
-0.00807986
-0.00729193
-0.00604917
-0.00428088
-0.00190225
0.00110232
0.00426312
0.00640357
0.000250878
-8.40448e-05
-0.000854813
-0.00206346
-0.00351953
-0.00502277
-0.00638588
-0.00750204
-0.00832215
-0.00887718
-0.0091685
-0.00917451
-0.00887156
-0.00823061
-0.00724959
-0.00592542
-0.00419057
-0.00191328
0.000726235
0.00278461
-2.28799e-05
-0.000580919
-0.00174205
-0.00332745
-0.00495694
-0.0064239
-0.00760703
-0.00850576
-0.00914956
-0.00959255
-0.00983475
-0.00985176
-0.00960156
-0.00906273
-0.00824621
-0.00719713
-0.00593545
-0.00429767
-0.00243397
-0.000580137
-0.000784033
-0.00146879
-0.00286306
-0.0045489
-0.00615638
-0.00747265
-0.00846279
-0.00920985
-0.00975861
-0.0101575
-0.0104015
-0.0104597
-0.0102815
-0.0098442
-0.00916429
-0.00830024
-0.00735457
-0.00617047
-0.00491431
-0.00340098
-0.00189004
-0.0026011
-0.00401383
-0.00560793
-0.0070856
-0.00822866
-0.00907294
-0.0097241
-0.0102224
-0.0106121
-0.0108883
-0.0110096
-0.010918
-0.0105832
-0.0100247
-0.0092865
-0.0085447
-0.00764239
-0.00681079
-0.00560086
-0.0030314
-0.00369081
-0.0050027
-0.00644455
-0.00776674
-0.0087553
-0.00950001
-0.0100908
-0.0105642
-0.0109646
-0.0112938
-0.0114999
-0.0114922
-0.0112379
-0.0107668
-0.0100986
-0.00948188
-0.00871426
-0.00816639
-0.00720587
-0.00394096
-0.00454156
-0.00572672
-0.00703111
-0.00821744
-0.00908526
-0.00976587
-0.01032
-0.0107827
-0.0112015
-0.0115844
-0.0118647
-0.0119202
-0.0117091
-0.0112838
-0.0106333
-0.010121
-0.00935289
-0.00908161
-0.00824998
-0.00452897
-0.00506329
-0.00613633
-0.00734743
-0.00843698
-0.00922775
-0.00987461
-0.0104085
-0.0108668
-0.0112976
-0.0117106
-0.012027
-0.012111
-0.0119087
-0.0115089
-0.0108361
-0.010455
-0.00955501
-0.00959289
-0.00876634
-0.00475597
-0.00525351
-0.00623736
-0.00739707
-0.00841671
-0.00919511
-0.00982612
-0.0103513
-0.0108082
-0.0112358
-0.0116425
-0.0119476
-0.0120249
-0.0118204
-0.0114079
-0.0107461
-0.010399
-0.00937768
-0.00971072
-0.00876677
-0.00462384
-0.00513178
-0.00606083
-0.00717802
-0.00819103
-0.00897998
-0.00961511
-0.0101437
-0.010598
-0.0110062
-0.0113773
-0.0116382
-0.0116839
-0.0114573
-0.0110168
-0.0103703
-0.0099647
-0.00890626
-0.00941604
-0.00828093
-0.00425862
-0.00477958
-0.00567036
-0.00671998
-0.00776021
-0.00858128
-0.00924317
-0.00979028
-0.0102465
-0.0106281
-0.0109435
-0.0111363
-0.011133
-0.0108704
-0.010393
-0.00973782
-0.00922149
-0.00817071
-0.00877271
-0.0073479
-0.00382102
-0.00432527
-0.0051313
-0.00606739
-0.00709951
-0.0079767
-0.00869888
-0.00929113
-0.00976724
-0.0101333
-0.0103969
-0.010519
-0.0104532
-0.0101421
-0.00961633
-0.00891376
-0.0082626
-0.00722344
-0.00781843
-0.00602197
-0.00352768
-0.00389475
-0.00450313
-0.00526606
-0.00621576
-0.00715857
-0.00797764
-0.00865171
-0.00917992
-0.00955951
-0.00979678
-0.00986268
-0.00972886
-0.00935093
-0.00875314
-0.00796249
-0.00716367
-0.00611406
-0.00661966
-0.00436838
-0.00350751
-0.00357913
-0.00380709
-0.00430844
-0.00512919
-0.00612159
-0.00706434
-0.00786177
-0.00848554
-0.00891829
-0.0091633
-0.00919796
-0.00900659
-0.0085537
-0.00786482
-0.00695926
-0.00601157
-0.00493019
-0.00520549
-0.00239791
-0.00352836
-0.00331747
-0.00304989
-0.00322639
-0.00390285
-0.00491462
-0.00598031
-0.00692853
-0.00769015
-0.00821995
-0.00851564
-0.0085584
-0.0083378
-0.00781862
-0.0070327
-0.00599155
-0.0048795
-0.00369612
-0.00354007
7.19662e-05
-0.00333745
-0.00283325
-0.00215445
-0.00204658
-0.00261417
-0.00364473
-0.00482169
-0.00590413
-0.00680836
-0.00745774
-0.00783454
-0.00791312
-0.00769562
-0.00716361
-0.00631878
-0.00516907
-0.00383674
-0.00236317
-0.00114918
0.00450773
-0.0029316
-0.00222426
-0.00131081
-0.00107304
-0.00160042
-0.0026314
-0.00389009
-0.00509485
-0.00611998
-0.00687905
-0.00733488
-0.00747455
-0.00729101
-0.00675438
-0.00587243
-0.00462874
-0.00300399
-0.000493252
0.00438038
0.0164831
-0.00448067
-0.00155785
-0.000420954
-0.000365367
-0.000919339
-0.00196268
-0.00326147
-0.00458572
-0.00569739
-0.00654445
-0.00705708
-0.0072497
-0.00709263
-0.00658413
-0.00563806
-0.00416883
-0.0014607
0.00460945
0.0177896
0.0395696
)
;

boundaryField
{
    movingWall
    {
        type            zeroGradient;
    }
    fixedWalls
    {
        type            zeroGradient;
    }
    frontAndBack
    {
        type            empty;
    }
}


// ************************************************************************* //
