/*--------------------------------*- C++ -*----------------------------------*\
| =========                 |                                                 |
| \\      /  F ield         | OpenFOAM: The Open Source CFD Toolbox           |
|  \\    /   O peration     | Version:  5.0                                   |
|   \\  /    A nd           | Web:      www.OpenFOAM.org                      |
|    \\/     M anipulation  |                                                 |
\*---------------------------------------------------------------------------*/
FoamFile
{
    version     2.0;
    format      ascii;
    class       surfaceScalarField;
    location    "5";
    object      phi;
}
// * * * * * * * * * * * * * * * * * * * * * * * * * * * * * * * * * * * * * //

dimensions      [0 3 -1 0 0 0 0];

internalField   nonuniform List<scalar> 
760
(
2.10726e-07
-2.10735e-07
2.52819e-07
-4.20931e-08
-5.231e-09
2.5805e-07
-8.1073e-07
8.05498e-07
-2.2888e-06
1.47807e-06
-3.85433e-06
1.56553e-06
-5.13848e-06
1.28416e-06
-6.2112e-06
1.07271e-06
-6.97037e-06
7.59176e-07
-7.55309e-06
5.82719e-07
-7.90019e-06
3.47093e-07
-8.09926e-06
1.99075e-07
-8.08545e-06
-1.38138e-08
-7.8904e-06
-1.95046e-07
-7.4649e-06
-4.255e-07
-6.71279e-06
-7.52111e-07
-5.51641e-06
-1.19638e-06
-3.75343e-06
-1.76298e-06
-1.56226e-06
-2.19117e-06
-1.56226e-06
-3.54282e-08
-1.75307e-07
-5.33387e-07
4.55865e-07
-1.70968e-06
1.43434e-06
-3.36171e-06
2.45753e-06
-4.70488e-06
2.82123e-06
-5.6302e-06
2.49086e-06
-6.47583e-06
2.12979e-06
-7.07967e-06
1.67655e-06
-7.60594e-06
1.28544e-06
-7.92276e-06
8.99543e-07
-8.11828e-06
5.42609e-07
-8.11701e-06
1.97804e-07
-7.9936e-06
-1.37222e-07
-7.72976e-06
-4.58879e-07
-7.29472e-06
-8.60544e-07
-6.6493e-06
-1.39753e-06
-5.6779e-06
-2.16778e-06
-4.21393e-06
-3.22695e-06
-2.18697e-06
-4.21813e-06
-3.74923e-06
-5.24718e-07
3.49411e-07
-1.62704e-06
1.55819e-06
-3.09251e-06
2.89981e-06
-4.25383e-06
3.61885e-06
-5.03005e-06
3.59745e-06
-5.64193e-06
3.10273e-06
-6.07665e-06
2.56451e-06
-6.31091e-06
1.9108e-06
-6.40958e-06
1.38412e-06
-6.37203e-06
8.61989e-07
-6.3034e-06
4.73979e-07
-6.20575e-06
1.00161e-07
-6.06444e-06
-2.78534e-07
-5.81877e-06
-7.0455e-07
-5.48356e-06
-1.19576e-06
-5.04649e-06
-1.8346e-06
-4.48008e-06
-2.73419e-06
-3.58537e-06
-4.12166e-06
-2.1121e-06
-5.6914e-06
-5.86133e-06
-9.299e-07
1.27931e-06
-2.26048e-06
2.88877e-06
-3.41901e-06
4.05834e-06
-4.15581e-06
4.35566e-06
-4.58693e-06
4.02857e-06
-4.79419e-06
3.30998e-06
-4.80746e-06
2.57778e-06
-4.76468e-06
1.86802e-06
-4.71627e-06
1.33571e-06
-4.69748e-06
8.43203e-07
-4.65792e-06
4.34415e-07
-4.57584e-06
1.8077e-08
-4.43426e-06
-4.20105e-07
-4.21412e-06
-9.24696e-07
-3.9088e-06
-1.50108e-06
-3.54288e-06
-2.20052e-06
-3.14315e-06
-3.13392e-06
-2.60887e-06
-4.65593e-06
-1.65445e-06
-6.64583e-06
-7.51578e-06
-1.1116e-06
2.39091e-06
-2.25595e-06
4.03312e-06
-3.01054e-06
4.81293e-06
-3.46755e-06
4.81266e-06
-3.63008e-06
4.19111e-06
-3.62935e-06
3.30925e-06
-3.58957e-06
2.538e-06
-3.577e-06
1.85545e-06
-3.57814e-06
1.33685e-06
-3.59664e-06
8.61701e-07
-3.5993e-06
4.3707e-07
-3.56525e-06
-1.59719e-08
-3.45291e-06
-5.32444e-07
-3.24768e-06
-1.12992e-06
-2.9443e-06
-1.80446e-06
-2.57331e-06
-2.57151e-06
-2.2324e-06
-3.47483e-06
-1.92921e-06
-4.95911e-06
-1.27537e-06
-7.29967e-06
-8.79115e-06
-9.77477e-07
3.36839e-06
-1.83936e-06
4.89501e-06
-2.36445e-06
5.33801e-06
-2.64347e-06
5.09169e-06
-2.68407e-06
4.2317e-06
-2.66693e-06
3.29212e-06
-2.65098e-06
2.52205e-06
-2.67502e-06
1.8795e-06
-2.71472e-06
1.37655e-06
-2.77297e-06
9.19946e-07
-2.82475e-06
4.8885e-07
-2.83865e-06
-2.07313e-09
-2.76341e-06
-6.07678e-07
-2.57791e-06
-1.31542e-06
-2.29236e-06
-2.09002e-06
-1.92242e-06
-2.94145e-06
-1.54882e-06
-3.84843e-06
-1.24137e-06
-5.26656e-06
-9.68189e-07
-7.57285e-06
-9.75934e-06
-7.37604e-07
4.10599e-06
-1.32049e-06
5.4779e-06
-1.68138e-06
5.6989e-06
-1.84748e-06
5.25779e-06
-1.8723e-06
4.25652e-06
-1.87229e-06
3.29211e-06
-1.88942e-06
2.53918e-06
-1.9376e-06
1.92768e-06
-2.00433e-06
1.44329e-06
-2.09845e-06
1.01406e-06
-2.19924e-06
5.89644e-07
-2.2477e-06
4.63907e-08
-2.2005e-06
-6.54886e-07
-2.03885e-06
-1.47706e-06
-1.78705e-06
-2.34182e-06
-1.47272e-06
-3.25578e-06
-1.15152e-06
-4.16963e-06
-9.17215e-07
-5.50087e-06
-7.17519e-07
-7.77255e-06
-1.04769e-05
-4.45044e-07
4.55103e-06
-8.17622e-07
5.85048e-06
-1.0596e-06
5.94087e-06
-1.15632e-06
5.35452e-06
-1.18039e-06
4.28059e-06
-1.19983e-06
3.31156e-06
-1.23509e-06
2.57443e-06
-1.29361e-06
1.98619e-06
-1.37448e-06
1.52416e-06
-1.4877e-06
1.12728e-06
-1.60568e-06
7.07631e-07
-1.65986e-06
1.00564e-07
-1.61809e-06
-6.96653e-07
-1.48293e-06
-1.61222e-06
-1.27708e-06
-2.54767e-06
-1.03622e-06
-3.49663e-06
-7.70337e-07
-4.43552e-06
-5.90042e-07
-5.68116e-06
-5.35753e-07
-7.82684e-06
-1.10126e-05
-1.94876e-07
4.74591e-06
-3.76885e-07
6.03249e-06
-4.99122e-07
6.06311e-06
-5.45763e-07
5.40116e-06
-5.73948e-07
4.30877e-06
-6.03843e-07
3.34145e-06
-6.44977e-07
2.61557e-06
-7.01129e-07
2.04234e-06
-7.76265e-07
1.59929e-06
-8.74257e-07
1.22527e-06
-9.63302e-07
7.96677e-07
-9.98229e-07
1.35492e-07
-9.68628e-07
-7.26253e-07
-8.8381e-07
-1.69704e-06
-7.58509e-07
-2.67297e-06
-6.21545e-07
-3.6336e-06
-4.87996e-07
-4.56907e-06
-3.95005e-07
-5.77415e-06
-3.90638e-07
-7.8312e-06
-1.14032e-05
6.75631e-08
4.67835e-06
6.14885e-09
6.0939e-06
-1.32769e-08
6.08253e-06
-2.85356e-08
5.41642e-06
-2.59284e-08
4.30617e-06
-6.04742e-08
3.376e-06
-9.3214e-08
2.64831e-06
-1.31509e-07
2.08064e-06
-1.78834e-07
1.64662e-06
-2.3393e-07
1.28037e-06
-2.74209e-07
8.36956e-07
-2.85093e-07
1.46376e-07
-2.72391e-07
-7.38955e-07
-2.56605e-07
-1.71283e-06
-2.17726e-07
-2.71185e-06
-2.1142e-07
-3.6399e-06
-1.63622e-07
-4.61687e-06
-1.81319e-07
-5.75646e-06
-2.96555e-07
-7.71597e-06
-1.16998e-05
2.78365e-07
4.39998e-06
4.14216e-07
5.95805e-06
4.98339e-07
5.99841e-06
5.02043e-07
5.41271e-06
4.77369e-07
4.33084e-06
4.5233e-07
3.40104e-06
4.34717e-07
2.66592e-06
4.24499e-07
2.09086e-06
4.24064e-07
1.64705e-06
4.30113e-07
1.27432e-06
4.40793e-07
8.26276e-07
4.38296e-07
1.48873e-07
4.21629e-07
-7.22288e-07
3.66566e-07
-1.65776e-06
2.95992e-07
-2.64128e-06
1.72845e-07
-3.51676e-06
1.13169e-07
-4.55719e-06
-6.78197e-08
-5.57547e-06
-2.10859e-07
-7.57293e-06
-1.19107e-05
4.97082e-07
3.9029e-06
7.7108e-07
5.68405e-06
9.4931e-07
5.82018e-06
9.85873e-07
5.37615e-06
9.65533e-07
4.35118e-06
9.53893e-07
3.41268e-06
9.55247e-07
2.66457e-06
9.72837e-07
2.07327e-06
1.01506e-06
1.60482e-06
1.07809e-06
1.21129e-06
1.1339e-06
7.70472e-07
1.13632e-06
1.46452e-07
1.07902e-06
-6.64986e-07
9.71239e-07
-1.54999e-06
7.87254e-07
-2.45729e-06
6.00168e-07
-3.32967e-06
3.68401e-07
-4.32542e-06
8.80491e-08
-5.29512e-06
-1.35239e-07
-7.34964e-06
-1.20459e-05
7.08683e-07
3.19422e-06
1.10358e-06
5.28916e-06
1.36906e-06
5.55471e-06
1.49196e-06
5.25325e-06
1.47724e-06
4.3659e-06
1.47454e-06
3.41538e-06
1.48924e-06
2.64987e-06
1.52463e-06
2.03788e-06
1.58761e-06
1.54184e-06
1.67618e-06
1.12272e-06
1.75644e-06
6.90221e-07
1.76859e-06
1.343e-07
1.68284e-06
-5.7924e-07
1.51375e-06
-1.3809e-06
1.25186e-06
-2.1954e-06
9.66824e-07
-3.04464e-06
6.04867e-07
-3.96347e-06
2.28204e-07
-4.91845e-06
-2.3539e-08
-7.0979e-06
-1.20694e-05
8.66778e-07
2.32744e-06
1.39306e-06
4.76287e-06
1.71852e-06
5.22925e-06
1.93806e-06
5.03371e-06
1.99212e-06
4.31184e-06
2.01693e-06
3.39056e-06
2.04801e-06
2.61879e-06
2.09292e-06
1.99297e-06
2.15542e-06
1.47935e-06
2.23543e-06
1.04271e-06
2.30755e-06
6.18094e-07
2.31878e-06
1.23072e-07
2.21599e-06
-4.7645e-07
2.00775e-06
-1.17266e-06
1.69874e-06
-1.88639e-06
1.33521e-06
-2.6811e-06
8.72779e-07
-3.50104e-06
3.95605e-07
-4.44128e-06
7.00718e-08
-6.77237e-06
-1.19994e-05
9.99724e-07
1.32772e-06
1.58699e-06
4.17561e-06
2.00527e-06
4.81096e-06
2.36132e-06
4.67766e-06
2.53741e-06
4.13576e-06
2.61485e-06
3.31312e-06
2.66861e-06
2.56503e-06
2.71972e-06
1.94186e-06
2.77205e-06
1.42702e-06
2.82708e-06
9.87677e-07
2.86345e-06
5.81722e-07
2.84578e-06
1.40746e-07
2.71994e-06
-3.50618e-07
2.48353e-06
-9.36247e-07
2.13524e-06
-1.5381e-06
1.70233e-06
-2.24819e-06
1.14236e-06
-2.94107e-06
5.4794e-07
-3.84686e-06
1.8882e-07
-6.41325e-06
-1.18105e-05
7.73455e-07
5.54261e-07
1.54803e-06
3.40103e-06
2.13643e-06
4.22257e-06
2.64674e-06
4.16735e-06
3.01113e-06
3.77137e-06
3.21511e-06
3.10913e-06
3.33585e-06
2.44429e-06
3.41661e-06
1.8611e-06
3.46991e-06
1.37372e-06
3.50446e-06
9.53128e-07
3.50134e-06
5.84839e-07
3.44315e-06
1.98937e-07
3.28355e-06
-1.91018e-07
3.0152e-06
-6.67901e-07
2.62087e-06
-1.14376e-06
2.11846e-06
-1.74578e-06
1.46332e-06
-2.28594e-06
7.7849e-07
-3.16203e-06
3.78727e-07
-6.01348e-06
-1.14318e-05
3.11268e-07
2.42992e-07
1.20947e-06
2.50283e-06
2.03339e-06
3.39865e-06
2.76916e-06
3.43157e-06
3.36574e-06
3.17479e-06
3.7776e-06
2.69727e-06
4.04617e-06
2.17573e-06
4.21313e-06
1.69415e-06
4.29986e-06
1.28698e-06
4.33453e-06
9.18463e-07
4.30244e-06
6.16927e-07
4.20372e-06
2.97653e-07
3.98738e-06
2.53246e-08
3.67033e-06
-3.50846e-07
3.20097e-06
-6.74402e-07
2.59982e-06
-1.14463e-06
1.83835e-06
-1.52447e-06
1.09952e-06
-2.42319e-06
6.95034e-07
-5.609e-06
-1.07368e-05
-3.23797e-07
5.66789e-07
5.92855e-07
1.58617e-06
1.54108e-06
2.45042e-06
2.53085e-06
2.44181e-06
3.37939e-06
2.32624e-06
4.04695e-06
2.02971e-06
4.53134e-06
1.69134e-06
4.87208e-06
1.3534e-06
5.06628e-06
1.09279e-06
5.16454e-06
8.20202e-07
5.14238e-06
6.39084e-07
5.03428e-06
4.05752e-07
4.80367e-06
2.55937e-07
4.4436e-06
9.22424e-09
3.92601e-06
-1.56815e-07
3.23243e-06
-4.51047e-07
2.41606e-06
-7.08098e-07
1.75177e-06
-1.75891e-06
1.23829e-06
-5.09552e-06
-9.4985e-06
-1.16483e-06
1.73162e-06
-5.21546e-07
9.42888e-07
7.52361e-07
1.17652e-06
1.98503e-06
1.20914e-06
3.08673e-06
1.22454e-06
3.99854e-06
1.1179e-06
4.68541e-06
1.00447e-06
5.20561e-06
8.33201e-07
5.5521e-06
7.46297e-07
5.77597e-06
5.96335e-07
5.86279e-06
5.52265e-07
5.84984e-06
4.18695e-07
5.70812e-06
3.97657e-07
5.4436e-06
2.73751e-07
5.0644e-06
2.22378e-07
4.57193e-06
4.14237e-08
4.07878e-06
-2.14946e-07
3.59852e-06
-1.27864e-06
2.48169e-06
-3.97869e-06
-7.01681e-06
1.73162e-06
2.67451e-06
3.85103e-06
5.06017e-06
6.28471e-06
7.40261e-06
8.40708e-06
9.24028e-06
9.98658e-06
1.05829e-05
1.11352e-05
1.15539e-05
1.19515e-05
1.22253e-05
1.24477e-05
1.24891e-05
1.22741e-05
1.09955e-05
7.01681e-06
)
;

boundaryField
{
    movingWall
    {
        type            calculated;
        value           uniform 0;
    }
    fixedWalls
    {
        type            calculated;
        value           uniform 0;
    }
    frontAndBack
    {
        type            empty;
        value           nonuniform 0();
    }
}


// ************************************************************************* //
