/*--------------------------------*- C++ -*----------------------------------*\
| =========                 |                                                 |
| \\      /  F ield         | OpenFOAM: The Open Source CFD Toolbox           |
|  \\    /   O peration     | Version:  5.0                                   |
|   \\  /    A nd           | Web:      www.OpenFOAM.org                      |
|    \\/     M anipulation  |                                                 |
\*---------------------------------------------------------------------------*/
FoamFile
{
    version     2.0;
    format      ascii;
    class       volVectorField;
    location    "5";
    object      U;
}
// * * * * * * * * * * * * * * * * * * * * * * * * * * * * * * * * * * * * * //

dimensions      [0 1 -1 0 0 0 0];

internalField   nonuniform List<vector> 
400
(
(0.00273385 -0.00290928 0)
(0.00507672 -0.00207342 0)
(0.00577675 -0.000621046 0)
(-0.00613115 0.00254926 0)
(-0.0226836 0.0111958 0)
(-0.0676001 0.0182692 0)
(-0.0922462 0.0123046 0)
(-0.118404 0.0128027 0)
(-0.133209 0.00900691 0)
(-0.147953 0.0085031 0)
(-0.15547 0.00557584 0)
(-0.161403 0.00490572 0)
(-0.163599 0.0026739 0)
(-0.162427 4.27928e-05 0)
(-0.154823 -0.00262508 0)
(-0.142042 -0.00705169 0)
(-0.120168 -0.0122432 0)
(-0.090084 -0.0173475 0)
(-0.0530717 -0.0189689 0)
(-0.0135816 -0.00513253 0)
(0.00170246 -0.00609477 0)
(-0.00336287 0.000318624 0)
(-0.0166705 0.0120996 0)
(-0.0495674 0.0325382 0)
(-0.0831026 0.0457757 0)
(-0.106914 0.0400833 0)
(-0.123582 0.0352333 0)
(-0.137496 0.0278719 0)
(-0.148635 0.0199129 0)
(-0.156706 0.0137904 0)
(-0.161672 0.00750553 0)
(-0.163967 0.00236101 0)
(-0.163118 -0.0035273 0)
(-0.159386 -0.00931931 0)
(-0.152099 -0.017011 0)
(-0.13997 -0.0269376 0)
(-0.121983 -0.0407601 0)
(-0.0960569 -0.0588482 0)
(-0.0640233 -0.0722477 0)
(-0.020068 -0.0534431 0)
(-0.00253506 -0.000257338 0)
(-0.017781 0.0190801 0)
(-0.0456167 0.0457468 0)
(-0.0766639 0.0625347 0)
(-0.0957216 0.0640853 0)
(-0.109136 0.0562827 0)
(-0.118547 0.0466454 0)
(-0.126337 0.0353114 0)
(-0.128162 0.0273275 0)
(-0.128211 0.0184796 0)
(-0.12726 0.011301 0)
(-0.125451 0.00381771 0)
(-0.123397 -0.00325034 0)
(-0.119909 -0.0112033 0)
(-0.114496 -0.0206082 0)
(-0.10686 -0.0337922 0)
(-0.0954153 -0.0528326 0)
(-0.0782155 -0.0794348 0)
(-0.0565731 -0.106459 0)
(-0.0214353 -0.105169 0)
(-0.0058467 0.0157046 0)
(-0.0301659 0.0457645 0)
(-0.0603621 0.0718923 0)
(-0.0791415 0.079512 0)
(-0.0901843 0.0757642 0)
(-0.0962217 0.0639557 0)
(-0.0972362 0.0518635 0)
(-0.095919 0.038365 0)
(-0.0941933 0.0273994 0)
(-0.0944527 0.0171808 0)
(-0.093781 0.00899924 0)
(-0.0928796 0.000922221 0)
(-0.0906267 -0.00687965 0)
(-0.0869405 -0.0157732 0)
(-0.0819169 -0.0259475 0)
(-0.075751 -0.0390153 0)
(-0.0681869 -0.0581533 0)
(-0.0551095 -0.0896042 0)
(-0.0432186 -0.127205 0)
(-0.0168183 -0.137477 0)
(-0.00809206 0.0369137 0)
(-0.0356422 0.0695776 0)
(-0.0566945 0.0884807 0)
(-0.0673608 0.0914369 0)
(-0.074095 0.0822772 0)
(-0.0730485 0.0667987 0)
(-0.0721365 0.0520005 0)
(-0.0710442 0.037822 0)
(-0.0713194 0.0270431 0)
(-0.0718183 0.0171609 0)
(-0.072334 0.00863294 0)
(-0.0721821 -0.000233198 0)
(-0.0707038 -0.00973354 0)
(-0.067298 -0.0205441 0)
(-0.0620433 -0.0327216 0)
(-0.0556058 -0.0467808 0)
(-0.0495279 -0.0644486 0)
(-0.0377931 -0.0946653 0)
(-0.0369421 -0.142396 0)
(-0.00776872 -0.166961 0)
(-0.00683118 0.0566307 0)
(-0.0318383 0.0894698 0)
(-0.044998 0.101247 0)
(-0.0530635 0.0988583 0)
(-0.055262 0.084607 0)
(-0.0527178 0.0665717 0)
(-0.0528666 0.050972 0)
(-0.0526394 0.0375873 0)
(-0.05381 0.0272352 0)
(-0.0548774 0.017789 0)
(-0.0564027 0.00912587 0)
(-0.0572396 -0.000351517 0)
(-0.056582 -0.0113051 0)
(-0.0536719 -0.0241945 0)
(-0.048597 -0.0386402 0)
(-0.0417843 -0.0547309 0)
(-0.0370331 -0.0724712 0)
(-0.0230442 -0.100967 0)
(-0.0283625 -0.147577 0)
(-0.00492369 -0.185837 0)
(-0.00545629 0.074353 0)
(-0.0242324 0.102736 0)
(-0.0317331 0.109441 0)
(-0.0381219 0.103381 0)
(-0.0379881 0.0851453 0)
(-0.0363712 0.0660549 0)
(-0.0373916 0.0507067 0)
(-0.0377463 0.0381194 0)
(-0.0393029 0.0281542 0)
(-0.0410048 0.0192177 0)
(-0.0434757 0.0105911 0)
(-0.0452166 0.000269014 0)
(-0.0450512 -0.012807 0)
(-0.0425722 -0.0282745 0)
(-0.0382661 -0.0449036 0)
(-0.0313338 -0.062729 0)
(-0.0293074 -0.080755 0)
(-0.0147631 -0.108326 0)
(-0.0244427 -0.154206 0)
(0.000206658 -0.203484 0)
(-0.00221719 0.0862532 0)
(-0.0156748 0.1136 0)
(-0.0196417 0.11671 0)
(-0.024687 0.106157 0)
(-0.0233449 0.0854222 0)
(-0.0229421 0.0661025 0)
(-0.0241866 0.0511545 0)
(-0.0248304 0.0391438 0)
(-0.0264738 0.0296304 0)
(-0.0286048 0.021303 0)
(-0.0316355 0.0127813 0)
(-0.0335908 0.00135563 0)
(-0.033256 -0.014063 0)
(-0.0309544 -0.0318329 0)
(-0.0279962 -0.0500505 0)
(-0.0210126 -0.068859 0)
(-0.0221289 -0.0867782 0)
(-0.00656058 -0.112219 0)
(-0.0194777 -0.155353 0)
(0.00162398 -0.214492 0)
(-0.000167135 0.0939368 0)
(-0.00779698 0.118611 0)
(-0.00904567 0.119748 0)
(-0.0122957 0.1075 0)
(-0.0107851 0.0858139 0)
(-0.0112407 0.0665009 0)
(-0.0123714 0.0518851 0)
(-0.0130697 0.0402821 0)
(-0.0145243 0.0312057 0)
(-0.0165654 0.0234288 0)
(-0.0192383 0.0148851 0)
(-0.0204931 0.00227662 0)
(-0.0199765 -0.0147907 0)
(-0.018073 -0.0340579 0)
(-0.0174339 -0.0533435 0)
(-0.0108254 -0.0725346 0)
(-0.0159997 -0.0913204 0)
(-0.000988364 -0.116033 0)
(-0.0174831 -0.157232 0)
(0.00495419 -0.225322 0)
(0.00346628 0.0950257 0)
(-0.000628276 0.122724 0)
(0.000657342 0.122821 0)
(-0.00145228 0.108555 0)
(5.23784e-07 0.086367 0)
(-0.000759435 0.0672601 0)
(-0.00149087 0.0526899 0)
(-0.00201769 0.0412821 0)
(-0.00294468 0.032497 0)
(-0.00421252 0.0250652 0)
(-0.00573498 0.0163186 0)
(-0.00606426 0.00279874 0)
(-0.00583042 -0.0149719 0)
(-0.00441372 -0.0346864 0)
(-0.00642154 -0.0546394 0)
(-0.000760217 -0.0731684 0)
(-0.00948669 -0.0929116 0)
(0.00508546 -0.114994 0)
(-0.0148269 -0.156014 0)
(0.00600855 -0.23122 0)
(0.00547506 0.092213 0)
(0.00571321 0.121244 0)
(0.00936708 0.121274 0)
(0.00900012 0.107983 0)
(0.0102978 0.0863022 0)
(0.00950457 0.067635 0)
(0.00896969 0.0530847 0)
(0.00877156 0.0417242 0)
(0.00857157 0.0330011 0)
(0.00837296 0.0256643 0)
(0.00814511 0.0167547 0)
(0.008624 0.00298879 0)
(0.00840765 -0.014677 0)
(0.0090854 -0.0338931 0)
(0.00514088 -0.0539621 0)
(0.00837296 -0.0720401 0)
(-0.00319714 -0.0927667 0)
(0.00980475 -0.113669 0)
(-0.0143891 -0.153886 0)
(0.0089522 -0.236877 0)
(0.00753475 0.085754 0)
(0.0115409 0.119197 0)
(0.017616 0.119913 0)
(0.0184211 0.109026 0)
(0.0199126 0.0868855 0)
(0.0194667 0.0683052 0)
(0.0192085 0.0534729 0)
(0.0193987 0.0418211 0)
(0.0198655 0.0327799 0)
(0.0206214 0.0252612 0)
(0.0214945 0.0164411 0)
(0.0226539 0.00323481 0)
(0.0220667 -0.0137025 0)
(0.0219792 -0.0319285 0)
(0.0165603 -0.0508382 0)
(0.0172758 -0.0686284 0)
(0.0037275 -0.0885908 0)
(0.014889 -0.108402 0)
(-0.0137067 -0.149003 0)
(0.0110079 -0.239227 0)
(0.0101025 0.0730185 0)
(0.0169307 0.110805 0)
(0.0253909 0.114003 0)
(0.0278736 0.106624 0)
(0.0300426 0.0866872 0)
(0.0298188 0.0678223 0)
(0.029733 0.0529013 0)
(0.0301826 0.0410491 0)
(0.0310282 0.0315655 0)
(0.0323154 0.023636 0)
(0.0336804 0.0150463 0)
(0.0354082 0.00307703 0)
(0.034425 -0.0120998 0)
(0.0338172 -0.0289768 0)
(0.0270801 -0.0462235 0)
(0.0253429 -0.0637142 0)
(0.0101421 -0.0828156 0)
(0.0189324 -0.102605 0)
(-0.0138235 -0.143821 0)
(0.0145862 -0.24078 0)
(0.0114671 0.0578998 0)
(0.0215037 0.103628 0)
(0.0324022 0.109325 0)
(0.0358417 0.104176 0)
(0.0394708 0.0879428 0)
(0.0403763 0.0685982 0)
(0.0407231 0.0530321 0)
(0.0414191 0.0406089 0)
(0.0423651 0.0304937 0)
(0.0437164 0.0219122 0)
(0.0447896 0.0133233 0)
(0.0465651 0.00274827 0)
(0.0452398 -0.0102368 0)
(0.0442042 -0.0251344 0)
(0.036765 -0.0404536 0)
(0.0333126 -0.0569628 0)
(0.0172589 -0.0743017 0)
(0.0232117 -0.0932103 0)
(-0.0128901 -0.1382 0)
(0.0180984 -0.239858 0)
(0.0138203 0.0369726 0)
(0.0248139 0.088752 0)
(0.0372989 0.100289 0)
(0.043661 0.0970577 0)
(0.0485189 0.0849631 0)
(0.0514598 0.0669502 0)
(0.0528147 0.0515139 0)
(0.0539082 0.0390582 0)
(0.054797 0.0288539 0)
(0.0559809 0.0201442 0)
(0.0563456 0.0118274 0)
(0.0575113 0.00245885 0)
(0.0554907 -0.00827302 0)
(0.0539558 -0.0209022 0)
(0.0459854 -0.033975 0)
(0.041403 -0.0490425 0)
(0.0245779 -0.064256 0)
(0.0270494 -0.0828902 0)
(-0.0118087 -0.131613 0)
(0.023662 -0.239292 0)
(0.00694442 0.0138917 0)
(0.0249967 0.0762909 0)
(0.0385455 0.0918935 0)
(0.0479079 0.0906267 0)
(0.0558241 0.0816944 0)
(0.0618206 0.0664968 0)
(0.0653098 0.0515023 0)
(0.0675774 0.0388106 0)
(0.0687387 0.0284221 0)
(0.0699402 0.019622 0)
(0.0695519 0.0117651 0)
(0.0700255 0.00344878 0)
(0.0669974 -0.00528041 0)
(0.0649071 -0.0157111 0)
(0.0562244 -0.026445 0)
(0.0506946 -0.0395573 0)
(0.0330629 -0.0520906 0)
(0.031473 -0.0702002 0)
(-0.00835941 -0.125437 0)
(0.030083 -0.237343 0)
(-0.00374588 0.00677348 0)
(0.0170923 0.0561946 0)
(0.0344946 0.0754137 0)
(0.0480669 0.0767292 0)
(0.0603351 0.0707823 0)
(0.0707011 0.0596573 0)
(0.0778054 0.0476945 0)
(0.0826619 0.036434 0)
(0.0849368 0.0267941 0)
(0.0868241 0.0184445 0)
(0.0858465 0.0114015 0)
(0.0858342 0.00424824 0)
(0.0815363 -0.00257268 0)
(0.0786046 -0.010684 0)
(0.0686876 -0.0184743 0)
(0.061778 -0.028872 0)
(0.0427117 -0.0381611 0)
(0.0364874 -0.0569914 0)
(-0.00203045 -0.120811 0)
(0.0395437 -0.235663 0)
(-0.0155997 0.00276947 0)
(0.0040202 0.0457126 0)
(0.0225345 0.0634566 0)
(0.0406703 0.0643759 0)
(0.0579129 0.0601214 0)
(0.073548 0.0516707 0)
(0.085128 0.0423287 0)
(0.0943306 0.0340469 0)
(0.098893 0.0269543 0)
(0.103055 0.0201109 0)
(0.102542 0.0146844 0)
(0.102837 0.00867866 0)
(0.0979528 0.00391582 0)
(0.0944414 -0.00240236 0)
(0.0838015 -0.00730857 0)
(0.0754129 -0.0155063 0)
(0.0550144 -0.0213561 0)
(0.0452546 -0.0436137 0)
(0.0126064 -0.118184 0)
(0.0524123 -0.22613 0)
(-0.0220706 0.0245074 0)
(-0.0219403 0.0183713 0)
(0.00386409 0.0328831 0)
(0.0271169 0.0342445 0)
(0.0499099 0.0338168 0)
(0.0707298 0.03069 0)
(0.0860776 0.0263813 0)
(0.0993395 0.0212361 0)
(0.107085 0.0177131 0)
(0.114025 0.0134718 0)
(0.116252 0.0114158 0)
(0.117769 0.00763467 0)
(0.115655 0.00603615 0)
(0.112727 0.00273741 0)
(0.10492 0.000667663 0)
(0.0979053 -0.00372475 0)
(0.0801324 -0.0102717 0)
(0.0741342 -0.0356122 0)
(0.0526691 -0.105826 0)
(0.0768684 -0.178015 0)
(0.0383439 0.0352024 0)
(0.0422003 0.0223762 0)
(0.0604708 0.0183001 0)
(0.0892087 0.0168902 0)
(0.111347 0.0175597 0)
(0.136854 0.0162692 0)
(0.155564 0.0159602 0)
(0.177031 0.0136936 0)
(0.190918 0.0134533 0)
(0.206797 0.0112675 0)
(0.216515 0.0113486 0)
(0.227564 0.00933824 0)
(0.23429 0.0096782 0)
(0.24124 0.00767573 0)
(0.245499 0.00827538 0)
(0.2485 0.00586039 0)
(0.245425 0.00432033 0)
(0.233616 -0.00260237 0)
(0.196236 -0.0147128 0)
(0.146091 -0.0349362 0)
)
;

boundaryField
{
    movingWall
    {
        type            fixedValue;
        value           uniform (1 0 0);
    }
    fixedWalls
    {
        type            noSlip;
    }
    frontAndBack
    {
        type            empty;
    }
}


// ************************************************************************* //
