/*--------------------------------*- C++ -*----------------------------------*\
| =========                 |                                                 |
| \\      /  F ield         | OpenFOAM: The Open Source CFD Toolbox           |
|  \\    /   O peration     | Version:  5.0                                   |
|   \\  /    A nd           | Web:      www.OpenFOAM.org                      |
|    \\/     M anipulation  |                                                 |
\*---------------------------------------------------------------------------*/
FoamFile
{
    version     2.0;
    format      ascii;
    class       volScalarField;
    location    "4";
    object      p;
}
// * * * * * * * * * * * * * * * * * * * * * * * * * * * * * * * * * * * * * //

dimensions      [0 2 -2 0 0 0 0];

internalField   nonuniform List<scalar> 
400
(
4.65738e-08
-5.38472e-05
-0.000127469
-0.000199971
-0.000261388
-0.000876845
-0.00196735
-0.00304208
-0.00391911
-0.00453636
-0.00487915
-0.00493006
-0.00469863
-0.00417905
-0.00315604
-0.00134608
0.00131764
0.00458287
0.00739469
0.00849335
4.44356e-05
-5.19546e-06
-8.23548e-05
-0.000325479
-0.000866235
-0.00170425
-0.00271353
-0.00367405
-0.0044629
-0.00498232
-0.0052578
-0.00530207
-0.00513968
-0.00473496
-0.00398902
-0.00265548
-0.000497392
0.00247634
0.00554825
0.0071462
0.000155214
3.00794e-05
-0.000309178
-0.000917382
-0.00179449
-0.00281068
-0.00383465
-0.00476604
-0.00542991
-0.00583047
-0.00599372
-0.00594896
-0.0057461
-0.00538904
-0.00485842
-0.00407289
-0.00271336
-0.000463573
0.00245365
0.00436256
0.000169961
-0.000131327
-0.000795625
-0.00179263
-0.00291475
-0.00400982
-0.00495293
-0.00562079
-0.00604953
-0.00626848
-0.00629161
-0.00614876
-0.00591627
-0.00563524
-0.0052727
-0.00481519
-0.00415028
-0.0026962
-0.000538009
0.00136825
-0.000181242
-0.000619435
-0.0015647
-0.00276917
-0.00391484
-0.00487947
-0.00562698
-0.00617555
-0.00654005
-0.00670974
-0.0066703
-0.00647255
-0.00617731
-0.00585282
-0.00550579
-0.00516537
-0.00489108
-0.00407547
-0.00275723
-0.00113598
-0.000881968
-0.00140136
-0.00246398
-0.0036557
-0.00470485
-0.00553501
-0.00623333
-0.00681521
-0.00720494
-0.00735397
-0.00726157
-0.00699756
-0.00661352
-0.00621364
-0.00582779
-0.00549951
-0.00536588
-0.00489114
-0.00422508
-0.00298394
-0.00178765
-0.00229669
-0.00333785
-0.00443168
-0.00538374
-0.00618382
-0.00695141
-0.00765162
-0.00812549
-0.00829615
-0.00816187
-0.00778985
-0.00726533
-0.00673279
-0.00624613
-0.00586611
-0.00579152
-0.0054575
-0.00513264
-0.00426945
-0.00266615
-0.00313541
-0.00409092
-0.00510357
-0.00601803
-0.00687248
-0.00779128
-0.00865943
-0.00926367
-0.00949228
-0.00932565
-0.00882719
-0.00812021
-0.00739844
-0.00675161
-0.00625624
-0.0061793
-0.0058685
-0.00575496
-0.0050758
-0.00335398
-0.00378938
-0.00469158
-0.00569712
-0.00664477
-0.00758337
-0.00866772
-0.00969049
-0.0104164
-0.0106961
-0.0105015
-0.0098996
-0.00901322
-0.00807757
-0.00726166
-0.00662539
-0.00650452
-0.00612516
-0.00615512
-0.00555757
-0.00379591
-0.00421243
-0.00510173
-0.00614632
-0.00715452
-0.00816366
-0.00936989
-0.0105106
-0.0112983
-0.0116028
-0.0113952
-0.0107246
-0.00972338
-0.00858828
-0.00764467
-0.00686469
-0.00671429
-0.00619116
-0.00640967
-0.00577521
-0.00397838
-0.00440559
-0.00528077
-0.00636344
-0.00742426
-0.00848952
-0.00973212
-0.0109115
-0.0117311
-0.0120285
-0.0118145
-0.0111191
-0.0100717
-0.00882045
-0.00778913
-0.00690068
-0.00676484
-0.00605076
-0.00651212
-0.00576357
-0.00393369
-0.00437194
-0.00521679
-0.00627829
-0.0073919
-0.00849021
-0.00969289
-0.0108269
-0.0116086
-0.0119163
-0.0117229
-0.0110483
-0.0100023
-0.00872342
-0.00763273
-0.00671353
-0.00659681
-0.00572167
-0.00645934
-0.00550517
-0.00378019
-0.00419752
-0.00495115
-0.00590225
-0.00702205
-0.00808672
-0.00919176
-0.0102337
-0.0109828
-0.0113038
-0.0111533
-0.0105353
-0.00953007
-0.00828547
-0.0071882
-0.00635746
-0.00617611
-0.00526316
-0.00622974
-0.00499549
-0.0036591
-0.00393399
-0.0045096
-0.00530648
-0.00630695
-0.00731123
-0.00831993
-0.00927337
-0.00999159
-0.0103317
-0.0102296
-0.00967808
-0.00873972
-0.00758075
-0.00654971
-0.00580259
-0.00558313
-0.004727
-0.00585849
-0.00424264
-0.00363212
-0.00368029
-0.00400805
-0.00457527
-0.00536865
-0.00627679
-0.00721068
-0.00809555
-0.00878651
-0.00914436
-0.00909428
-0.00860306
-0.00776263
-0.00673148
-0.00582628
-0.0051687
-0.00492986
-0.00419234
-0.00536611
-0.00330507
-0.00362054
-0.00352641
-0.00352935
-0.00378047
-0.00431941
-0.00507164
-0.00592431
-0.00675272
-0.00741976
-0.00778901
-0.00779417
-0.00743206
-0.00674065
-0.005889
-0.0051414
-0.00459215
-0.00434944
-0.00375784
-0.00481069
-0.00221648
-0.00355589
-0.00340778
-0.00309963
-0.00301617
-0.00327769
-0.00386273
-0.00464211
-0.00545128
-0.00613723
-0.00656162
-0.00666361
-0.00642748
-0.00589573
-0.00522063
-0.00461723
-0.00415564
-0.00390907
-0.0034519
-0.00417392
-0.000844898
-0.00342672
-0.0031313
-0.00265064
-0.00231627
-0.00236269
-0.00281417
-0.00354188
-0.0043823
-0.00512861
-0.0056333
-0.00581833
-0.00569144
-0.00533106
-0.00481952
-0.00432128
-0.0038931
-0.00360526
-0.00317315
-0.00312354
0.00226369
-0.00338742
-0.00288503
-0.00230795
-0.00183506
-0.00179371
-0.0021768
-0.00288398
-0.00374297
-0.00453698
-0.00513213
-0.005437
-0.0054502
-0.00519858
-0.00475932
-0.00430893
-0.00392934
-0.00365147
-0.00253021
0.00102297
0.0130202
-0.00486581
-0.00250482
-0.00175996
-0.00141913
-0.00143805
-0.00183078
-0.00254796
-0.00341011
-0.00424418
-0.0048889
-0.00527597
-0.00537066
-0.00518538
-0.00478934
-0.00425045
-0.00349849
-0.00206627
0.0021367
0.0140985
0.0360337
)
;

boundaryField
{
    movingWall
    {
        type            zeroGradient;
    }
    fixedWalls
    {
        type            zeroGradient;
    }
    frontAndBack
    {
        type            empty;
    }
}


// ************************************************************************* //
