/*--------------------------------*- C++ -*----------------------------------*\
| =========                 |                                                 |
| \\      /  F ield         | OpenFOAM: The Open Source CFD Toolbox           |
|  \\    /   O peration     | Version:  5.0                                   |
|   \\  /    A nd           | Web:      www.OpenFOAM.org                      |
|    \\/     M anipulation  |                                                 |
\*---------------------------------------------------------------------------*/
FoamFile
{
    version     2.0;
    format      ascii;
    class       surfaceScalarField;
    location    "4";
    object      phi;
}
// * * * * * * * * * * * * * * * * * * * * * * * * * * * * * * * * * * * * * //

dimensions      [0 3 -1 0 0 0 0];

internalField   nonuniform List<scalar> 
760
(
1.24122e-07
-1.24127e-07
1.29815e-07
-5.69277e-09
-1.4614e-07
2.75955e-07
-9.59533e-07
8.13393e-07
-2.29546e-06
1.33593e-06
-3.60289e-06
1.30743e-06
-4.64534e-06
1.04245e-06
-5.47343e-06
8.28095e-07
-6.07083e-06
5.97397e-07
-6.51848e-06
4.4765e-07
-6.78857e-06
2.70095e-07
-6.97196e-06
1.83384e-07
-7.01818e-06
4.62249e-08
-6.94368e-06
-7.45071e-08
-6.69588e-06
-2.47792e-07
-6.21664e-06
-4.79241e-07
-5.27598e-06
-9.4066e-07
-3.73677e-06
-1.53921e-06
-1.63648e-06
-2.10029e-06
-1.63648e-06
-1.23435e-07
-6.92287e-10
-6.29209e-07
5.00081e-07
-1.76497e-06
1.41172e-06
-3.20687e-06
2.25529e-06
-4.2751e-06
2.40416e-06
-5.00274e-06
2.03506e-06
-5.66123e-06
1.70094e-06
-6.13815e-06
1.30502e-06
-6.52678e-06
9.86027e-07
-6.73717e-06
6.58039e-07
-6.86864e-06
4.01565e-07
-6.84237e-06
1.57121e-07
-6.74593e-06
-5.0216e-08
-6.5809e-06
-2.39538e-07
-6.32609e-06
-5.02609e-07
-5.90966e-06
-8.95664e-07
-5.22983e-06
-1.6205e-06
-4.00279e-06
-2.76625e-06
-2.14898e-06
-3.95409e-06
-3.78546e-06
-5.2366e-07
5.22968e-07
-1.57318e-06
1.5496e-06
-2.85025e-06
2.6888e-06
-3.77318e-06
3.17821e-06
-4.3687e-06
2.99968e-06
-4.80081e-06
2.46718e-06
-5.04547e-06
1.9456e-06
-5.08323e-06
1.34277e-06
-4.9834e-06
8.86203e-07
-4.82439e-06
4.99022e-07
-4.64805e-06
2.2523e-07
-4.51305e-06
2.21143e-08
-4.3707e-06
-1.92564e-07
-4.26022e-06
-3.50016e-07
-4.14602e-06
-6.16812e-07
-4.0206e-06
-1.02108e-06
-3.78535e-06
-1.85574e-06
-3.13437e-06
-3.41724e-06
-1.91537e-06
-5.17309e-06
-5.70083e-06
-8.56781e-07
1.37975e-06
-2.03281e-06
2.72563e-06
-2.95894e-06
3.61492e-06
-3.51855e-06
3.73782e-06
-3.74492e-06
3.22605e-06
-3.72392e-06
2.44617e-06
-3.5955e-06
1.81718e-06
-3.49441e-06
1.24168e-06
-3.41622e-06
8.08018e-07
-3.28779e-06
3.70586e-07
-3.123e-06
6.04417e-08
-2.87828e-06
-2.22603e-07
-2.63692e-06
-4.33926e-07
-2.41152e-06
-5.75421e-07
-2.2385e-06
-7.8983e-07
-2.18781e-06
-1.07178e-06
-2.29358e-06
-1.74997e-06
-2.21831e-06
-3.49251e-06
-1.41445e-06
-5.97695e-06
-7.11528e-06
-9.24796e-07
2.30455e-06
-1.87262e-06
3.67345e-06
-2.47334e-06
4.21565e-06
-2.78296e-06
4.04744e-06
-2.80238e-06
3.24547e-06
-2.80764e-06
2.45143e-06
-2.8899e-06
1.89945e-06
-3.03211e-06
1.38389e-06
-3.10745e-06
8.83356e-07
-3.06056e-06
3.23699e-07
-2.87465e-06
-1.25469e-07
-2.55963e-06
-5.37621e-07
-2.19266e-06
-8.00896e-07
-1.81989e-06
-9.48194e-07
-1.49934e-06
-1.11038e-06
-1.26384e-06
-1.30728e-06
-1.2487e-06
-1.76511e-06
-1.33899e-06
-3.40222e-06
-1.08793e-06
-6.22802e-06
-8.20321e-06
-7.95684e-07
3.10023e-06
-1.48071e-06
4.35848e-06
-1.91139e-06
4.64633e-06
-2.12806e-06
4.26411e-06
-2.22008e-06
3.33749e-06
-2.42282e-06
2.65417e-06
-2.75419e-06
2.23082e-06
-3.05364e-06
1.68334e-06
-3.2255e-06
1.05521e-06
-3.22769e-06
3.25889e-07
-3.035e-06
-3.18156e-07
-2.69497e-06
-8.77653e-07
-2.23419e-06
-1.26167e-06
-1.73202e-06
-1.45037e-06
-1.27392e-06
-1.56848e-06
-8.97074e-07
-1.68413e-06
-7.45205e-07
-1.91698e-06
-7.57767e-07
-3.38966e-06
-6.97393e-07
-6.28839e-06
-8.9006e-06
-5.42185e-07
3.64241e-06
-1.03313e-06
4.84943e-06
-1.3737e-06
4.9869e-06
-1.59353e-06
4.48393e-06
-1.83237e-06
3.57634e-06
-2.21552e-06
3.03731e-06
-2.64143e-06
2.65673e-06
-2.99081e-06
2.03271e-06
-3.19898e-06
1.26338e-06
-3.23005e-06
3.56962e-07
-3.06517e-06
-4.83037e-07
-2.73459e-06
-1.20823e-06
-2.25687e-06
-1.73939e-06
-1.71435e-06
-1.99289e-06
-1.21357e-06
-2.06926e-06
-7.77163e-07
-2.12053e-06
-5.04538e-07
-2.1896e-06
-5.07178e-07
-3.38702e-06
-5.74616e-07
-6.22095e-06
-9.47521e-06
-3.23585e-07
3.966e-06
-6.40951e-07
5.16679e-06
-9.16688e-07
5.26264e-06
-1.17183e-06
4.73907e-06
-1.50126e-06
3.90578e-06
-1.93905e-06
3.4751e-06
-2.36608e-06
3.08376e-06
-2.69246e-06
2.35909e-06
-2.87705e-06
1.44797e-06
-2.92374e-06
4.03651e-07
-2.81222e-06
-5.94558e-07
-2.54195e-06
-1.4785e-06
-2.12401e-06
-2.15733e-06
-1.6121e-06
-2.5048e-06
-1.1101e-06
-2.57127e-06
-6.91523e-07
-2.53911e-06
-3.71749e-07
-2.50938e-06
-3.16156e-07
-3.44261e-06
-3.80363e-07
-6.15675e-06
-9.85558e-06
-7.62486e-08
4.04225e-06
-2.74062e-07
5.36461e-06
-4.7088e-07
5.45945e-06
-7.10436e-07
4.97863e-06
-1.0523e-06
4.24764e-06
-1.4201e-06
3.84289e-06
-1.75892e-06
3.42258e-06
-2.01544e-06
2.61562e-06
-2.15778e-06
1.59031e-06
-2.21569e-06
4.61559e-07
-2.17826e-06
-6.31989e-07
-2.0162e-06
-1.64056e-06
-1.71952e-06
-2.454e-06
-1.32134e-06
-2.90298e-06
-8.89121e-07
-3.00349e-06
-5.25697e-07
-2.90253e-06
-2.60248e-07
-2.77482e-06
-2.07976e-07
-3.49488e-06
-3.39867e-07
-6.02485e-06
-1.01954e-05
1.47544e-07
3.8947e-06
9.42398e-08
5.41791e-06
-2.25373e-08
5.57623e-06
-2.03946e-07
5.16004e-06
-4.52751e-07
4.49645e-06
-7.16771e-07
4.10691e-06
-9.24572e-07
3.63038e-06
-1.07827e-06
2.76932e-06
-1.17486e-06
1.68689e-06
-1.23822e-06
5.24922e-07
-1.25028e-06
-6.19925e-07
-1.19922e-06
-1.69162e-06
-1.0634e-06
-2.58982e-06
-8.13906e-07
-3.15248e-06
-5.32753e-07
-3.28464e-06
-2.93299e-07
-3.14198e-06
-9.87497e-08
-2.96937e-06
-1.1571e-07
-3.47792e-06
-2.45374e-07
-5.89519e-06
-1.04408e-05
3.57565e-07
3.53714e-06
5.04169e-07
5.27131e-06
5.21621e-07
5.55878e-06
4.15753e-07
5.2659e-06
2.64726e-07
4.64747e-06
1.42641e-07
4.229e-06
5.79896e-08
3.71504e-06
-4.38115e-09
2.83169e-06
-6.91801e-08
1.75169e-06
-1.25718e-07
5.8146e-07
-1.72876e-07
-5.72767e-07
-2.23766e-07
-1.64073e-06
-2.17804e-07
-2.59578e-06
-1.7835e-07
-3.19193e-06
-4.73349e-08
-3.41566e-06
-3.52994e-08
-3.15402e-06
7.49469e-08
-3.07962e-06
-4.6961e-08
-3.35602e-06
-2.36499e-07
-5.70565e-06
-1.06773e-05
5.95415e-07
2.94172e-06
9.02952e-07
4.96377e-06
1.04282e-06
5.41891e-06
1.05492e-06
5.25381e-06
9.78619e-07
4.72377e-06
1.01234e-06
4.19528e-06
1.06467e-06
3.66271e-06
1.07944e-06
2.81692e-06
1.04905e-06
1.78208e-06
9.80622e-07
6.49888e-07
8.75284e-07
-4.6743e-07
7.58799e-07
-1.52425e-06
6.35761e-07
-2.47274e-06
5.40538e-07
-3.09671e-06
4.1504e-07
-3.29016e-06
3.2685e-07
-3.06583e-06
2.51347e-07
-3.00412e-06
2.47534e-08
-3.12942e-06
-1.74223e-07
-5.50668e-06
-1.08515e-05
7.56714e-07
2.18501e-06
1.23573e-06
4.48476e-06
1.51043e-06
5.14421e-06
1.67851e-06
5.08573e-06
1.73493e-06
4.66735e-06
1.84769e-06
4.08252e-06
1.99271e-06
3.51769e-06
2.0816e-06
2.72804e-06
2.09334e-06
1.77033e-06
2.02561e-06
7.17625e-07
1.88434e-06
-3.26168e-07
1.69981e-06
-1.33972e-06
1.47239e-06
-2.24533e-06
1.21142e-06
-2.83573e-06
9.40008e-07
-3.01875e-06
6.93079e-07
-2.8189e-06
4.27103e-07
-2.73814e-06
1.0414e-07
-2.80646e-06
-1.61817e-07
-5.24072e-06
-1.10134e-05
7.35792e-07
1.44922e-06
1.45672e-06
3.76383e-06
1.87563e-06
4.7253e-06
2.17134e-06
4.79002e-06
2.35526e-06
4.48343e-06
2.53302e-06
3.90476e-06
2.74026e-06
3.31045e-06
2.89209e-06
2.57621e-06
2.95717e-06
1.70525e-06
2.91105e-06
7.63751e-07
2.77247e-06
-1.8759e-07
2.5568e-06
-1.12405e-06
2.24983e-06
-1.93836e-06
1.85286e-06
-2.43876e-06
1.4218e-06
-2.58769e-06
9.94123e-07
-2.39123e-06
5.85405e-07
-2.32942e-06
1.59822e-07
-2.38088e-06
-5.32505e-08
-5.02765e-06
-1.10666e-05
5.84069e-07
8.6515e-07
1.48541e-06
2.86248e-06
2.13088e-06
4.07984e-06
2.59101e-06
4.32989e-06
2.92895e-06
4.14549e-06
3.19407e-06
3.63964e-06
3.44823e-06
3.05628e-06
3.6439e-06
2.38054e-06
3.74197e-06
1.60717e-06
3.7233e-06
7.82418e-07
3.58038e-06
-4.46689e-08
3.32042e-06
-8.64081e-07
2.91879e-06
-1.53673e-06
2.39772e-06
-1.91769e-06
1.81199e-06
-2.00196e-06
1.2457e-06
-1.82493e-06
7.16909e-07
-1.80063e-06
2.21183e-07
-1.88515e-06
3.72967e-08
-4.84376e-06
-1.10293e-05
3.20872e-07
5.44278e-07
1.11464e-06
2.06872e-06
1.95802e-06
3.23646e-06
2.63043e-06
3.65747e-06
3.16258e-06
3.61334e-06
3.57596e-06
3.22626e-06
3.92539e-06
2.70686e-06
4.19147e-06
2.11447e-06
4.33354e-06
1.4651e-06
4.33748e-06
7.78482e-07
4.18429e-06
1.08518e-07
3.84887e-06
-5.28659e-07
3.35924e-06
-1.0471e-06
2.7421e-06
-1.30055e-06
2.06686e-06
-1.32672e-06
1.41052e-06
-1.16859e-06
8.13264e-07
-1.20338e-06
3.26918e-07
-1.3988e-06
2.19626e-07
-4.73647e-06
-1.08097e-05
1.88227e-08
5.25456e-07
5.62201e-07
1.52534e-06
1.44022e-06
2.35844e-06
2.3333e-06
2.76439e-06
3.1115e-06
2.83513e-06
3.70617e-06
2.63159e-06
4.15836e-06
2.25467e-06
4.46981e-06
1.80301e-06
4.63673e-06
1.29819e-06
4.63788e-06
7.77328e-07
4.4594e-06
2.86996e-07
4.07956e-06
-1.48816e-07
3.52857e-06
-4.96111e-07
2.8543e-06
-6.26279e-07
2.16896e-06
-6.41381e-07
1.52502e-06
-5.2464e-07
9.25184e-07
-6.03548e-07
5.31555e-07
-1.00517e-06
5.01049e-07
-4.70596e-06
-1.03086e-05
-4.61655e-07
9.87111e-07
-2.00878e-07
1.26456e-06
5.47015e-07
1.61055e-06
1.47283e-06
1.83858e-06
2.40259e-06
1.90537e-06
3.19939e-06
1.83479e-06
3.83096e-06
1.6231e-06
4.26969e-06
1.36429e-06
4.50749e-06
1.06038e-06
4.51988e-06
7.64939e-07
4.33513e-06
4.71749e-07
3.95286e-06
2.33454e-07
3.39071e-06
6.60384e-08
2.77066e-06
-6.23102e-09
2.13643e-06
-7.14776e-09
1.56332e-06
4.84736e-08
1.11716e-06
-1.57391e-07
1.08667e-06
-9.74682e-07
1.05224e-06
-4.67153e-06
-9.2564e-06
-1.00904e-06
1.99615e-06
-8.33126e-07
1.08864e-06
-1.19453e-07
8.96879e-07
7.66556e-07
9.52572e-07
1.71623e-06
9.55696e-07
2.59865e-06
9.52374e-07
3.35658e-06
8.65168e-07
3.93089e-06
7.89979e-07
4.32115e-06
6.70118e-07
4.50057e-06
5.8551e-07
4.50005e-06
4.72271e-07
4.31539e-06
4.1812e-07
4.01129e-06
3.70138e-07
3.63203e-06
3.73023e-07
3.3075e-06
3.17384e-07
3.0942e-06
2.61781e-07
2.96895e-06
-3.21414e-08
3.05837e-06
-1.0641e-06
2.29297e-06
-3.90613e-06
-6.96343e-06
1.99615e-06
3.0848e-06
3.98167e-06
4.93425e-06
5.88994e-06
6.84232e-06
7.70748e-06
8.49746e-06
9.16758e-06
9.75309e-06
1.02254e-05
1.06435e-05
1.10136e-05
1.13866e-05
1.1704e-05
1.19658e-05
1.19337e-05
1.08696e-05
6.96343e-06
)
;

boundaryField
{
    movingWall
    {
        type            calculated;
        value           uniform 0;
    }
    fixedWalls
    {
        type            calculated;
        value           uniform 0;
    }
    frontAndBack
    {
        type            empty;
        value           nonuniform 0();
    }
}


// ************************************************************************* //
