/*--------------------------------*- C++ -*----------------------------------*\
| =========                 |                                                 |
| \\      /  F ield         | OpenFOAM: The Open Source CFD Toolbox           |
|  \\    /   O peration     | Version:  5.0                                   |
|   \\  /    A nd           | Web:      www.OpenFOAM.org                      |
|    \\/     M anipulation  |                                                 |
\*---------------------------------------------------------------------------*/
FoamFile
{
    version     2.0;
    format      ascii;
    class       volVectorField;
    location    "4";
    object      U;
}
// * * * * * * * * * * * * * * * * * * * * * * * * * * * * * * * * * * * * * //

dimensions      [0 1 -1 0 0 0 0];

internalField   nonuniform List<vector> 
400
(
(0.00144748 -0.00181394 0)
(0.00327298 -0.00183151 0)
(0.0017998 -0.000747908 0)
(-0.00788033 0.00279994 0)
(-0.0274238 0.0113289 0)
(-0.0650643 0.0146713 0)
(-0.0842923 0.0100873 0)
(-0.10501 0.0107594 0)
(-0.115907 0.0070201 0)
(-0.127268 0.00728284 0)
(-0.13307 0.00455549 0)
(-0.138232 0.00491978 0)
(-0.140676 0.00300034 0)
(-0.141645 0.00225556 0)
(-0.139472 -0.000890868 0)
(-0.130495 -0.00334726 0)
(-0.114124 -0.00996564 0)
(-0.0876017 -0.0155177 0)
(-0.0530156 -0.0188796 0)
(-0.016598 -0.00717694 0)
(0.000129932 -0.00332474 0)
(-0.00526909 0.001689 0)
(-0.0187277 0.0130302 0)
(-0.0500863 0.031913 0)
(-0.0773649 0.0396428 0)
(-0.095771 0.0340758 0)
(-0.107833 0.0291252 0)
(-0.120579 0.0208864 0)
(-0.126913 0.0158043 0)
(-0.133453 0.0100444 0)
(-0.135489 0.00595183 0)
(-0.1378 0.00194139 0)
(-0.136729 -0.0016036 0)
(-0.135807 -0.0060008 0)
(-0.132011 -0.0109615 0)
(-0.125532 -0.0191238 0)
(-0.111617 -0.032598 0)
(-0.0900219 -0.0519227 0)
(-0.059595 -0.069748 0)
(-0.0247623 -0.0568935 0)
(-0.00252551 0.00337739 0)
(-0.0175466 0.0195716 0)
(-0.0443756 0.0435647 0)
(-0.0690576 0.0558373 0)
(-0.0840917 0.0544687 0)
(-0.0930912 0.0449827 0)
(-0.100663 0.0361687 0)
(-0.103474 0.0275698 0)
(-0.099994 0.0201016 0)
(-0.0986629 0.0132086 0)
(-0.0934962 0.00767859 0)
(-0.0912043 0.00287377 0)
(-0.0877863 -0.00117615 0)
(-0.0876991 -0.00509278 0)
(-0.0848246 -0.0112714 0)
(-0.0852418 -0.0202794 0)
(-0.0801267 -0.0381067 0)
(-0.0681902 -0.0674222 0)
(-0.0479035 -0.0974776 0)
(-0.0238447 -0.102869 0)
(-0.00518754 0.019068 0)
(-0.0280923 0.0440484 0)
(-0.0533685 0.0644881 0)
(-0.0675831 0.0686891 0)
(-0.0756956 0.0618956 0)
(-0.0763516 0.0499513 0)
(-0.074672 0.038412 0)
(-0.0693848 0.0258802 0)
(-0.0699247 0.0171237 0)
(-0.0660927 0.00868539 0)
(-0.0641126 0.00281077 0)
(-0.0590182 -0.0014937 0)
(-0.0547351 -0.0051282 0)
(-0.0508382 -0.00733982 0)
(-0.0463366 -0.0116826 0)
(-0.0449134 -0.0183769 0)
(-0.0471997 -0.034612 0)
(-0.0435496 -0.0714997 0)
(-0.0395405 -0.115433 0)
(-0.0109114 -0.131588 0)
(-0.00577871 0.0362937 0)
(-0.0302142 0.064154 0)
(-0.0469393 0.0780509 0)
(-0.0551809 0.0780293 0)
(-0.0582973 0.0653663 0)
(-0.055088 0.0497731 0)
(-0.0573396 0.0375618 0)
(-0.0590625 0.026648 0)
(-0.062775 0.0172051 0)
(-0.061361 0.00727222 0)
(-0.059485 -2.49133e-05 0)
(-0.0538385 -0.00685852 0)
(-0.0469913 -0.0114658 0)
(-0.0400142 -0.0143875 0)
(-0.0321527 -0.018002 0)
(-0.0267475 -0.021877 0)
(-0.0274396 -0.0319165 0)
(-0.0223269 -0.0644728 0)
(-0.0293678 -0.123207 0)
(-0.00818485 -0.155775 0)
(-0.00531812 0.0539255 0)
(-0.0258783 0.0803614 0)
(-0.0362779 0.0883143 0)
(-0.042998 0.0830292 0)
(-0.0437445 0.0662092 0)
(-0.044013 0.0509738 0)
(-0.0531456 0.0406074 0)
(-0.0589165 0.0300066 0)
(-0.0641717 0.0189701 0)
(-0.0647771 0.0063398 0)
(-0.0625746 -0.00450438 0)
(-0.0570664 -0.0140557 0)
(-0.0487205 -0.0203052 0)
(-0.0395734 -0.0237453 0)
(-0.0288644 -0.0267366 0)
(-0.0204409 -0.029831 0)
(-0.0183737 -0.0363863 0)
(-0.0100952 -0.0676985 0)
(-0.0222508 -0.123619 0)
(-0.000986219 -0.170484 0)
(-0.00238141 0.0669414 0)
(-0.0187268 0.0914937 0)
(-0.0253683 0.0957949 0)
(-0.0316475 0.0872449 0)
(-0.0327754 0.0685968 0)
(-0.0389463 0.0558296 0)
(-0.0508097 0.0480618 0)
(-0.0575425 0.0362655 0)
(-0.0635545 0.0224247 0)
(-0.0645854 0.00618828 0)
(-0.0628624 -0.00882914 0)
(-0.057532 -0.0218403 0)
(-0.0494122 -0.0309961 0)
(-0.039477 -0.0350737 0)
(-0.0281018 -0.0366072 0)
(-0.0185336 -0.0380652 0)
(-0.0153592 -0.0401909 0)
(-0.00326844 -0.0660316 0)
(-0.0190603 -0.125428 0)
(-0.000276945 -0.183776 0)
(-0.000778471 0.0763125 0)
(-0.011757 0.100203 0)
(-0.0160211 0.102402 0)
(-0.0221995 0.0912839 0)
(-0.0247255 0.0736402 0)
(-0.0337773 0.0640709 0)
(-0.0456662 0.0560176 0)
(-0.0518735 0.0426952 0)
(-0.057757 0.026044 0)
(-0.0578715 0.00686073 0)
(-0.0573813 -0.0120517 0)
(-0.0526785 -0.0286748 0)
(-0.0461768 -0.0408378 0)
(-0.0370967 -0.0467674 0)
(-0.026425 -0.0476145 0)
(-0.0159195 -0.0477657 0)
(-0.0145618 -0.0480575 0)
(0.00140998 -0.0689998 0)
(-0.0161227 -0.122747 0)
(0.00382201 -0.191958 0)
(0.00205609 0.0811365 0)
(-0.00488325 0.105438 0)
(-0.00741489 0.106628 0)
(-0.0125981 0.0960148 0)
(-0.0158001 0.0798367 0)
(-0.0247016 0.0720087 0)
(-0.0343044 0.0640672 0)
(-0.0387285 0.0486027 0)
(-0.0437253 0.0293373 0)
(-0.0433835 0.0078381 0)
(-0.043897 -0.0135709 0)
(-0.0410673 -0.0331728 0)
(-0.0367713 -0.0481919 0)
(-0.0298993 -0.0559877 0)
(-0.0228065 -0.0570628 0)
(-0.0106498 -0.0552754 0)
(-0.0130335 -0.0532816 0)
(0.00442342 -0.0693228 0)
(-0.01476 -0.122179 0)
(0.00394602 -0.200395 0)
(0.00501396 0.0802916 0)
(0.00130257 0.108541 0)
(0.00169293 0.11098 0)
(-0.0028636 0.10126 0)
(-0.00508798 0.0876882 0)
(-0.0118382 0.0793524 0)
(-0.0185855 0.0702989 0)
(-0.0205644 0.0533789 0)
(-0.0237396 0.0322285 0)
(-0.0239497 0.00947448 0)
(-0.0247475 -0.0131576 0)
(-0.0235991 -0.0345381 0)
(-0.0224287 -0.0522815 0)
(-0.0177721 -0.0617684 0)
(-0.0155754 -0.0645971 0)
(-0.0036649 -0.0615029 0)
(-0.0103889 -0.0586395 0)
(0.00788024 -0.0699289 0)
(-0.0143926 -0.118523 0)
(0.00720661 -0.205776 0)
(0.00674965 0.0761412 0)
(0.00802213 0.108267 0)
(0.0106747 0.111995 0)
(0.00875924 0.104484 0)
(0.00747719 0.0909267 0)
(0.00406133 0.0833647 0)
(0.000774281 0.0736522 0)
(0.000857766 0.0564219 0)
(-0.00116506 0.0346705 0)
(-0.00169669 0.0110814 0)
(-0.0031334 -0.0119693 0)
(-0.00323741 -0.0331994 0)
(-0.00501942 -0.0517704 0)
(-0.00245485 -0.0644025 0)
(-0.00521714 -0.0679224 0)
(0.00399912 -0.0632661 0)
(-0.00633935 -0.0610652 0)
(0.0109663 -0.0681095 0)
(-0.0143251 -0.116884 0)
(0.00785395 -0.211766 0)
(0.00943411 0.0673272 0)
(0.0143467 0.10455 0)
(0.0201534 0.111445 0)
(0.0203146 0.107095 0)
(0.0205107 0.0951445 0)
(0.0197337 0.0856351 0)
(0.0190612 0.0754361 0)
(0.021129 0.0581693 0)
(0.0206506 0.0365717 0)
(0.0206416 0.0128965 0)
(0.0187584 -0.0101425 0)
(0.0175981 -0.0313841 0)
(0.014299 -0.0508106 0)
(0.0134237 -0.0629467 0)
(0.00760328 -0.0672088 0)
(0.0112274 -0.0630632 0)
(-0.00129661 -0.061467 0)
(0.0147576 -0.0649037 0)
(-0.0154028 -0.111042 0)
(0.0114305 -0.215148 0)
(0.0109221 0.0524537 0)
(0.0194393 0.0963673 0)
(0.0283809 0.106926 0)
(0.0311706 0.104378 0)
(0.0337002 0.0953666 0)
(0.0355385 0.0842056 0)
(0.0367564 0.0734616 0)
(0.0402064 0.0569347 0)
(0.0409705 0.0367093 0)
(0.041816 0.0143134 0)
(0.0393993 -0.00751319 0)
(0.0376093 -0.0280341 0)
(0.0326894 -0.0464144 0)
(0.0294317 -0.0589939 0)
(0.0200962 -0.062779 0)
(0.0197682 -0.059109 0)
(0.00385327 -0.0573786 0)
(0.0178262 -0.0592162 0)
(-0.0165458 -0.108151 0)
(0.0133556 -0.218909 0)
(0.00681723 0.0354389 0)
(0.0236258 0.0852732 0)
(0.0335931 0.101555 0)
(0.0402779 0.101218 0)
(0.0444431 0.0938967 0)
(0.0483762 0.0816235 0)
(0.0513457 0.0696253 0)
(0.0555681 0.0543545 0)
(0.0576525 0.035913 0)
(0.0593596 0.0155714 0)
(0.0572812 -0.0046236 0)
(0.0554836 -0.0238585 0)
(0.0496654 -0.0411355 0)
(0.0439422 -0.0521178 0)
(0.0318012 -0.0560301 0)
(0.0272162 -0.0519063 0)
(0.00805331 -0.0507043 0)
(0.0207075 -0.0516488 0)
(-0.0181469 -0.101554 0)
(0.0181644 -0.220242 0)
(0.00212845 0.0214073 0)
(0.0227551 0.064653 0)
(0.0372048 0.0882441 0)
(0.0476047 0.092363 0)
(0.0544367 0.0879185 0)
(0.0605805 0.0769902 0)
(0.0651287 0.0647746 0)
(0.0701713 0.0503937 0)
(0.073028 0.0337349 0)
(0.0752552 0.0159207 0)
(0.0737525 -0.00234408 0)
(0.0716253 -0.0193769 0)
(0.0642053 -0.0341841 0)
(0.0562603 -0.043111 0)
(0.0410318 -0.0455032 0)
(0.0333865 -0.0419108 0)
(0.0120247 -0.0409359 0)
(0.0222706 -0.0421212 0)
(-0.0181239 -0.0986487 0)
(0.0222368 -0.222108 0)
(-0.000326605 0.012627 0)
(0.0140199 0.0487761 0)
(0.0323536 0.075587 0)
(0.0468721 0.0828445 0)
(0.0575017 0.0804427 0)
(0.0669802 0.0715978 0)
(0.0737276 0.0606061 0)
(0.0806484 0.0478242 0)
(0.0844986 0.0332372 0)
(0.0875268 0.0174206 0)
(0.0860946 0.00114594 0)
(0.0830092 -0.0132021 0)
(0.0739632 -0.025119 0)
(0.0638152 -0.0317822 0)
(0.0469606 -0.0331505 0)
(0.0373398 -0.0300037 0)
(0.0151473 -0.0302224 0)
(0.0227715 -0.0328373 0)
(-0.0154671 -0.0960329 0)
(0.0294341 -0.222585 0)
(-0.00365237 0.0094614 0)
(0.00434187 0.032188 0)
(0.0200734 0.0527526 0)
(0.038957 0.0631683 0)
(0.0546109 0.0651679 0)
(0.0681001 0.059551 0)
(0.0777254 0.0500715 0)
(0.0861313 0.0389212 0)
(0.0905887 0.0271357 0)
(0.093718 0.0149997 0)
(0.0918072 0.0036339 0)
(0.0880056 -0.00703455 0)
(0.0778632 -0.0155338 0)
(0.0661476 -0.0191513 0)
(0.0489998 -0.0192655 0)
(0.0391105 -0.01686 0)
(0.0186595 -0.0184324 0)
(0.023056 -0.0243636 0)
(-0.00905909 -0.0979981 0)
(0.0375748 -0.2253 0)
(-0.00865376 0.0127212 0)
(-0.00885203 0.0310774 0)
(0.00195973 0.0433206 0)
(0.0212956 0.0490006 0)
(0.0384857 0.0503052 0)
(0.0561182 0.0479365 0)
(0.0694844 0.0421411 0)
(0.0810617 0.0346836 0)
(0.0877568 0.0260077 0)
(0.0913829 0.0172084 0)
(0.0895291 0.00878209 0)
(0.0850714 0.00187392 0)
(0.0747599 -0.00340627 0)
(0.063331 -0.00538352 0)
(0.047954 -0.00578926 0)
(0.0388075 -0.00310058 0)
(0.0211956 -0.00428482 0)
(0.0264814 -0.0181069 0)
(0.00627488 -0.104719 0)
(0.0505636 -0.219867 0)
(-0.015959 0.0314322 0)
(-0.0220705 0.0175743 0)
(-0.0101941 0.0182741 0)
(0.00626827 0.0224926 0)
(0.0244909 0.0238409 0)
(0.0431264 0.0234604 0)
(0.0588853 0.0210343 0)
(0.0728153 0.0183564 0)
(0.0824182 0.0150486 0)
(0.0889244 0.0119609 0)
(0.0910957 0.00866343 0)
(0.0894081 0.00625134 0)
(0.084606 0.00539931 0)
(0.0780788 0.00498383 0)
(0.0688334 0.00533984 0)
(0.0639556 0.0041556 0)
(0.0536471 -0.00439994 0)
(0.0572154 -0.0287327 0)
(0.0473541 -0.103875 0)
(0.0743179 -0.17789 0)
(0.0429584 0.039283 0)
(0.0476223 0.0286242 0)
(0.0691307 0.0208892 0)
(0.0890357 0.0179036 0)
(0.109138 0.0158561 0)
(0.126355 0.0155952 0)
(0.14478 0.0140526 0)
(0.160851 0.0136789 0)
(0.176211 0.0119075 0)
(0.189005 0.0115752 0)
(0.200065 0.00991636 0)
(0.209953 0.0099856 0)
(0.217087 0.00871717 0)
(0.224303 0.00918755 0)
(0.228291 0.00813732 0)
(0.234285 0.00831552 0)
(0.235218 0.00460613 0)
(0.227158 -0.00190615 0)
(0.195736 -0.0137684 0)
(0.14527 -0.0320936 0)
)
;

boundaryField
{
    movingWall
    {
        type            fixedValue;
        value           uniform (1 0 0);
    }
    fixedWalls
    {
        type            noSlip;
    }
    frontAndBack
    {
        type            empty;
    }
}


// ************************************************************************* //
