/*--------------------------------*- C++ -*----------------------------------*\
| =========                 |                                                 |
| \\      /  F ield         | OpenFOAM: The Open Source CFD Toolbox           |
|  \\    /   O peration     | Version:  5.0                                   |
|   \\  /    A nd           | Web:      www.OpenFOAM.org                      |
|    \\/     M anipulation  |                                                 |
\*---------------------------------------------------------------------------*/
FoamFile
{
    version     2.0;
    format      ascii;
    class       volScalarField;
    location    "4";
    object      yPlus;
}
// * * * * * * * * * * * * * * * * * * * * * * * * * * * * * * * * * * * * * //

dimensions      [0 0 0 0 0 0 0];

internalField   uniform 0;

boundaryField
{
    movingWall
    {
        type            calculated;
        value           nonuniform List<scalar> 
20
(
15.4746
15.4338
15.257
15.0925
14.9248
14.7799
14.6231
14.485
14.3516
14.2397
14.1421
14.0544
13.9907
13.9262
13.8902
13.8362
13.8275
13.9
14.1808
14.623
)
;
    }
    fixedWalls
    {
        type            calculated;
        value           nonuniform List<scalar> 
60
(
0.76169
0.912041
1.02679
2.22267
3.03112
3.68059
4.09218
4.36796
4.50451
4.48464
4.37149
4.12265
3.65988
3.00369
2.3191
1.77702
1.59232
1.96122
2.96865
3.81482
2.12622
3.93855
5.13801
5.74542
6.2448
6.52853
6.7782
6.92813
7.07873
7.17465
7.27859
7.33913
7.40466
7.43286
7.47025
7.49204
7.55665
7.5101
6.94244
6.09862
0.76169
0.96832
0.698035
1.44594
2.72359
4.08344
4.60689
5.13711
5.38794
5.64527
5.76949
5.88047
5.93102
5.95111
5.90497
5.71266
5.3516
4.71608
3.7509
2.12622
)
;
    }
    frontAndBack
    {
        type            empty;
    }
}


// ************************************************************************* //
