/*--------------------------------*- C++ -*----------------------------------*\
| =========                 |                                                 |
| \\      /  F ield         | OpenFOAM: The Open Source CFD Toolbox           |
|  \\    /   O peration     | Version:  5.0                                   |
|   \\  /    A nd           | Web:      www.OpenFOAM.org                      |
|    \\/     M anipulation  |                                                 |
\*---------------------------------------------------------------------------*/
FoamFile
{
    version     2.0;
    format      ascii;
    class       volScalarField;
    location    "0.4";
    object      Co;
}
// * * * * * * * * * * * * * * * * * * * * * * * * * * * * * * * * * * * * * //

dimensions      [0 0 0 0 0 0 0];

internalField   nonuniform List<scalar> 
400
(
0.000284999
0.000728863
0.00228544
0.00490998
0.00792212
0.0109475
0.013664
0.0158135
0.0172044
0.0177131
0.0177131
0.0172866
0.015948
0.0138019
0.0110396
0.00793898
0.00485505
0.0021947
0.000682125
0.000313794
0.000684328
0.00433645
0.0105212
0.0179137
0.0256571
0.0329712
0.0391843
0.0437614
0.0463177
0.0466307
0.0465485
0.0464178
0.0440082
0.0394885
0.0332222
0.0257661
0.0178511
0.0103346
0.00413604
0.000616057
0.00224358
0.0107923
0.0222053
0.034604
0.0466629
0.0573084
0.0656888
0.071174
0.0733596
0.0720759
0.0718413
0.0734289
0.0715286
0.0662103
0.0578171
0.0469824
0.0346332
0.0219714
0.0104595
0.00204902
0.00514787
0.0194571
0.0366983
0.0542634
0.0703801
0.0837422
0.0934139
0.0987837
0.0995393
0.0956623
0.0952084
0.0995891
0.0993414
0.0943218
0.0847239
0.0711306
0.0545644
0.0365224
0.0190157
0.00483537
0.00902014
0.0302531
0.0539016
0.0767758
0.0967394
0.112331
0.122616
0.12709
0.12561
0.118374
0.117574
0.125649
0.128002
0.124187
0.114146
0.0983033
0.0776842
0.0540125
0.0297994
0.00859076
0.013819
0.043188
0.0738676
0.102205
0.125811
0.143177
0.153468
0.156371
0.151985
0.140766
0.13938
0.151969
0.1578
0.156059
0.14633
0.128763
0.104261
0.0746734
0.0429374
0.0133144
0.019554
0.058331
0.0967024
0.130638
0.15763
0.176257
0.185915
0.186587
0.178684
0.162952
0.160586
0.178456
0.188652
0.189918
0.181373
0.162735
0.134618
0.0988395
0.0586648
0.0190801
0.0262806
0.0758036
0.122521
0.162097
0.192063
0.21128
0.219539
0.217256
0.20523
0.184534
0.180615
0.204473
0.219952
0.225298
0.219031
0.200241
0.16901
0.126887
0.0773142
0.0260342
0.0340998
0.0957748
0.151413
0.196455
0.2287
0.247542
0.253407
0.247304
0.230528
0.204502
0.198273
0.228707
0.25041
0.261086
0.258518
0.240917
0.207493
0.159168
0.099302
0.0343962
0.0431689
0.118469
0.183413
0.233358
0.266707
0.283762
0.285885
0.274896
0.252696
0.221086
0.211652
0.249026
0.27785
0.295288
0.298251
0.28378
0.249756
0.195928
0.125114
0.044468
0.0537356
0.144194
0.218459
0.272093
0.304644
0.317851
0.314415
0.297216
0.268873
0.231578
0.218013
0.262314
0.298994
0.324747
0.335533
0.326914
0.294868
0.237169
0.155285
0.0566618
0.0662088
0.173374
0.256304
0.311372
0.340163
0.346601
0.335218
0.310215
0.27501
0.232154
0.213694
0.264331
0.309245
0.344838
0.366151
0.367027
0.340885
0.282411
0.190364
0.0715574
0.0812903
0.206588
0.296296
0.348914
0.369517
0.36522
0.342929
0.308347
0.265678
0.217724
0.194049
0.249646
0.302542
0.349177
0.38392
0.398854
0.384239
0.330263
0.230803
0.090006
0.100194
0.244476
0.336828
0.380639
0.386748
0.366692
0.330167
0.284339
0.233979
0.181898
0.153491
0.211701
0.271364
0.329452
0.380218
0.414372
0.418768
0.377596
0.276653
0.113294
0.124941
0.287237
0.374011
0.399109
0.382385
0.340915
0.287119
0.229113
0.171671
0.117182
0.0856582
0.143128
0.207043
0.275535
0.34368
0.401886
0.434231
0.417952
0.326691
0.143295
0.158416
0.332757
0.398652
0.390732
0.341556
0.273785
0.201385
0.136498
0.0924785
0.058466
0.0304031
0.0693022
0.111404
0.176171
0.260361
0.345202
0.414191
0.43854
0.376034
0.182193
0.20303
0.371088
0.38994
0.331303
0.25978
0.227868
0.224513
0.218973
0.207887
0.18847
0.167968
0.195241
0.213863
0.226308
0.235999
0.260586
0.333511
0.415039
0.410377
0.230424
0.254506
0.370143
0.318134
0.28411
0.304354
0.327432
0.347781
0.36178
0.367132
0.362172
0.351364
0.365773
0.369226
0.363041
0.34925
0.331508
0.315916
0.341798
0.393338
0.27959
0.270206
0.318666
0.34172
0.400669
0.457559
0.504561
0.54036
0.565234
0.579728
0.584154
0.58151
0.58502
0.578251
0.560797
0.531812
0.490583
0.438124
0.381913
0.344172
0.282174
0.270206
0.491557
0.627326
0.712122
0.76652
0.801918
0.825061
0.839863
0.848508
0.852133
0.852134
0.851154
0.845379
0.833905
0.814745
0.784034
0.734486
0.652672
0.514208
0.282174
)
;

boundaryField
{
    movingWall
    {
        type            zeroGradient;
    }
    fixedWalls
    {
        type            zeroGradient;
    }
    frontAndBack
    {
        type            empty;
    }
}


// ************************************************************************* //
