/*--------------------------------*- C++ -*----------------------------------*\
| =========                 |                                                 |
| \\      /  F ield         | OpenFOAM: The Open Source CFD Toolbox           |
|  \\    /   O peration     | Version:  5.0                                   |
|   \\  /    A nd           | Web:      www.OpenFOAM.org                      |
|    \\/     M anipulation  |                                                 |
\*---------------------------------------------------------------------------*/
FoamFile
{
    version     2.0;
    format      ascii;
    class       volScalarField;
    location    "10";
    object      epsilon;
}
// * * * * * * * * * * * * * * * * * * * * * * * * * * * * * * * * * * * * * //

dimensions      [0 2 -3 0 0 0 0];

internalField   nonuniform List<scalar> 
400
(
2.66554e-05
9.57139e-05
0.000355757
0.000683188
0.000894687
0.00105967
0.00119458
0.00132376
0.00143792
0.00155453
0.00166432
0.00178004
0.00189645
0.00197026
0.0020035
0.00200471
0.00185036
0.00145865
0.000902262
0.000649486
0.000116462
0.000329865
0.000820051
0.00107905
0.00113839
0.00115875
0.0011657
0.00120554
0.00125757
0.00134818
0.00146292
0.00161184
0.00178855
0.00199673
0.00222433
0.00244493
0.00254679
0.00255122
0.0020048
0.00130933
0.000362776
0.000930214
0.00113656
0.00115758
0.00112253
0.00110081
0.00108954
0.00112229
0.00118334
0.0012608
0.00135224
0.00145567
0.0015801
0.00173381
0.00192374
0.00215277
0.00234971
0.00242722
0.00223207
0.00167315
0.000790816
0.00121074
0.0012131
0.00111865
0.00103973
0.000994059
0.000982505
0.000992911
0.00101788
0.00104529
0.00108613
0.00115101
0.00125235
0.0014015
0.00161863
0.00191077
0.00223345
0.00238234
0.00233382
0.00190934
0.00110834
0.00135849
0.00118208
0.00102125
0.00091123
0.000854789
0.000817939
0.000789008
0.000766081
0.000756162
0.000756163
0.000798601
0.000885536
0.00103995
0.0012904
0.00166437
0.00215655
0.00245601
0.00249839
0.00208639
0.00126952
0.00134809
0.00110198
0.000902118
0.000789396
0.000715257
0.000648365
0.00058405
0.000526753
0.000492157
0.000479258
0.000493158
0.000567064
0.00071064
0.000968734
0.00139578
0.0020332
0.00259361
0.00274048
0.00222992
0.00129382
0.00129541
0.000994804
0.000798531
0.000683275
0.000592831
0.000504378
0.000420358
0.000349844
0.000306414
0.00028854
0.000287667
0.000340671
0.000458426
0.000691662
0.00112595
0.00186184
0.00272382
0.00301979
0.00234173
0.00127444
0.0011886
0.000897911
0.000713737
0.000598429
0.000498173
0.000399321
0.000309963
0.0002402
0.000198607
0.000180818
0.00017819
0.000211516
0.000295496
0.000485204
0.000884921
0.00165026
0.00279123
0.00336558
0.00243395
0.00122601
0.00107253
0.000814693
0.000648213
0.000535918
0.000432342
0.000331817
0.000244906
0.000180883
0.000144777
0.000130001
0.000128335
0.000150958
0.000209766
0.000352626
0.000704029
0.00148652
0.00280914
0.00370869
0.002499
0.0011332
0.000973643
0.000747754
0.00059917
0.000492499
0.000391428
0.000293709
0.000211801
0.000154389
0.000122446
0.000109635
0.000109724
0.000126477
0.000170504
0.000279356
0.000570032
0.00132123
0.00280593
0.00407624
0.00254996
0.00103649
0.000889899
0.000695304
0.000564572
0.000465589
0.000368954
0.000278728
0.00020516
0.00015288
0.00012147
0.000106505
0.00010652
0.000119797
0.00015661
0.000246553
0.000495266
0.00119208
0.00277738
0.00440594
0.00257522
0.000951195
0.000835773
0.000659249
0.000541403
0.000449104
0.000363467
0.00028108
0.000210997
0.000160569
0.000129687
0.000114774
0.000115083
0.000124883
0.000155179
0.000236624
0.000461571
0.00110649
0.00276454
0.00469625
0.00258707
0.000860023
0.000794525
0.000639793
0.000532218
0.000449234
0.000367843
0.00029102
0.000226757
0.000179652
0.000149619
0.000133789
0.00013423
0.000143325
0.000171376
0.000244044
0.000452322
0.00106888
0.00276131
0.00485129
0.00259004
0.000773799
0.000774218
0.000648376
0.000539027
0.00045731
0.000381009
0.000312336
0.000254544
0.000210513
0.000181304
0.000163715
0.000163998
0.000172843
0.000201106
0.000274072
0.000474952
0.00106103
0.00278476
0.00491281
0.00258783
0.000677975
0.000749203
0.000666722
0.000560907
0.000480127
0.00040779
0.00034363
0.000290354
0.000249307
0.000221924
0.000203846
0.000204413
0.000214093
0.000244985
0.000323609
0.000534784
0.00111427
0.00285582
0.00490887
0.00253346
0.000576233
0.000741144
0.000707064
0.0006187
0.00053427
0.000462165
0.000398071
0.000344904
0.000303195
0.000275476
0.000256441
0.000257759
0.000270064
0.000308107
0.000402221
0.000646415
0.00125102
0.00299542
0.00464936
0.00244627
0.000468063
0.00069829
0.000725633
0.000693964
0.000627484
0.000556674
0.000489445
0.000431574
0.000386025
0.000354376
0.000337102
0.00034148
0.000362396
0.000421109
0.000557074
0.000892076
0.0015776
0.00327405
0.00421371
0.00229576
0.000314525
0.000616235
0.000807629
0.000861315
0.000840214
0.000780303
0.000704127
0.000634833
0.000583268
0.00054595
0.000546541
0.000567145
0.000623935
0.000758253
0.00103368
0.00166859
0.00249825
0.0037989
0.00390102
0.00210101
0.000320076
0.000614981
0.00104253
0.00123368
0.00129439
0.00128742
0.00125986
0.0012376
0.00124918
0.00129392
0.00139239
0.00158954
0.00186943
0.00232011
0.00291104
0.00381168
0.00452955
0.00440016
0.00384391
0.00182603
0.000231657
0.000356815
0.000648759
0.000938742
0.00115162
0.00128695
0.00136134
0.00140589
0.00142742
0.00143995
0.00144472
0.00145328
0.00146257
0.00148308
0.00150045
0.00154976
0.00161581
0.0016919
0.00167427
0.00149657
)
;

boundaryField
{
    movingWall
    {
        Cmu             0.09;
        kappa           0.41;
        E               9.8;
        type            epsilonWallFunction;
        value           nonuniform List<scalar> 
20
(
0.000231657
0.000356815
0.000648759
0.000938742
0.00115162
0.00128695
0.00136134
0.00140589
0.00142742
0.00143995
0.00144472
0.00145328
0.00146257
0.00148308
0.00150045
0.00154976
0.00161581
0.0016919
0.00167427
0.00149657
)
;
    }
    fixedWalls
    {
        Cmu             0.09;
        kappa           0.41;
        E               9.8;
        type            epsilonWallFunction;
        value           nonuniform List<scalar> 
60
(
2.66554e-05
0.000116462
0.000362776
0.000790816
0.00110834
0.00126952
0.00129382
0.00127444
0.00122601
0.0011332
0.00103649
0.000951195
0.000860023
0.000773799
0.000677975
0.000576233
0.000468063
0.000314525
0.000320076
0.000231657
0.000649486
0.00130933
0.00167315
0.00190934
0.00208639
0.00222992
0.00234173
0.00243395
0.002499
0.00254996
0.00257522
0.00258707
0.00259004
0.00258783
0.00253346
0.00244627
0.00229576
0.00210101
0.00182603
0.00149657
2.66554e-05
9.57139e-05
0.000355757
0.000683188
0.000894687
0.00105967
0.00119458
0.00132376
0.00143792
0.00155453
0.00166432
0.00178004
0.00189645
0.00197026
0.0020035
0.00200471
0.00185036
0.00145865
0.000902262
0.000649486
)
;
    }
    frontAndBack
    {
        type            empty;
    }
}


// ************************************************************************* //
