/*--------------------------------*- C++ -*----------------------------------*\
| =========                 |                                                 |
| \\      /  F ield         | OpenFOAM: The Open Source CFD Toolbox           |
|  \\    /   O peration     | Version:  5.0                                   |
|   \\  /    A nd           | Web:      www.OpenFOAM.org                      |
|    \\/     M anipulation  |                                                 |
\*---------------------------------------------------------------------------*/
FoamFile
{
    version     2.0;
    format      ascii;
    class       volScalarField;
    location    "10";
    object      k;
}
// * * * * * * * * * * * * * * * * * * * * * * * * * * * * * * * * * * * * * //

dimensions      [0 2 -2 0 0 0 0];

internalField   nonuniform List<scalar> 
400
(
8.33379e-06
2.99273e-05
0.00011122
0.000213562
0.000279662
0.000331226
0.000373389
0.000413765
0.000449444
0.00048589
0.000520203
0.000556369
0.00059275
0.000615815
0.000626198
0.000626573
0.000578324
0.000455888
0.000282001
0.000202999
3.64101e-05
0.00012597
0.000264101
0.000423154
0.000492941
0.000567778
0.000614449
0.000679848
0.000734371
0.000798381
0.000859628
0.000923591
0.000980497
0.00104318
0.00109776
0.00112549
0.00113152
0.00101495
0.000674233
0.000409218
0.000113408
0.00038198
0.000543496
0.000625552
0.000679573
0.000725881
0.00076477
0.000813863
0.000859186
0.00090859
0.00095447
0.000999348
0.00104321
0.00109201
0.00113906
0.00117273
0.00118552
0.00113805
0.000825662
0.000522912
0.000247199
0.000594647
0.000677548
0.00071267
0.00073682
0.000758348
0.000785429
0.00081766
0.000848758
0.000877352
0.000902209
0.000933619
0.000976993
0.00103377
0.00110523
0.00117375
0.00120368
0.00120388
0.000967032
0.000596725
0.000346439
0.000708435
0.000730343
0.00072843
0.000735085
0.00074922
0.000762674
0.000768272
0.000762868
0.000757108
0.000756949
0.000780246
0.000826057
0.000900696
0.00100989
0.00114741
0.0012423
0.00126638
0.00108959
0.000652056
0.000396811
0.000736868
0.000734092
0.000723155
0.000720623
0.000716222
0.000695228
0.000658901
0.000622953
0.000601425
0.000593624
0.000604089
0.000650717
0.000735275
0.000871326
0.00106325
0.00126001
0.00133857
0.00122476
0.00069691
0.000404405
0.000728501
0.000726362
0.000706364
0.000686782
0.000655532
0.000607779
0.000550822
0.000500796
0.000469651
0.000457287
0.000459001
0.000500329
0.000583044
0.000727215
0.000953373
0.00125633
0.00141154
0.00135136
0.000731852
0.000398347
0.000707334
0.00070717
0.000677524
0.000646711
0.000599077
0.000535341
0.00046831
0.000413014
0.000378643
0.000364349
0.000363298
0.000395967
0.000468608
0.000603111
0.000836153
0.00119159
0.00147468
0.00148887
0.000760671
0.000383208
0.000667611
0.000675716
0.000647816
0.00061153
0.00055536
0.000484543
0.000414714
0.000359596
0.000326032
0.000312196
0.000311354
0.000336574
0.000395522
0.000514436
0.0007367
0.00111419
0.00152326
0.0016091
0.000781
0.000354203
0.000634015
0.000646117
0.00062211
0.000584899
0.000526099
0.000454329
0.000385813
0.000333573
0.000301575
0.000288062
0.000288868
0.000309524
0.000358792
0.000459885
0.000665092
0.00104385
0.00154745
0.00173215
0.000796924
0.000323974
0.000590131
0.000613759
0.000598223
0.000564023
0.000508707
0.000441029
0.000378309
0.000329547
0.000297868
0.000282375
0.00028337
0.000300795
0.000343912
0.000433808
0.000621455
0.000990756
0.00155916
0.00183464
0.000804816
0.000297313
0.000553662
0.000589183
0.000581094
0.000552203
0.000501391
0.000441879
0.000382712
0.000335944
0.000305051
0.000289681
0.000290542
0.000303769
0.000341366
0.00042529
0.000601616
0.000953803
0.00156677
0.00191918
0.000808518
0.000268817
0.000506511
0.000560938
0.00056125
0.000543631
0.000502531
0.000448115
0.000395257
0.000352577
0.00032341
0.000308301
0.000309592
0.000321848
0.000356209
0.000432344
0.000597163
0.000936471
0.00157516
0.00195963
0.000809448
0.000241866
0.000476176
0.000545903
0.000550208
0.000539392
0.000508134
0.000462179
0.000417186
0.000379443
0.000352555
0.000337683
0.000339259
0.000351325
0.00038492
0.000458911
0.00061672
0.000932398
0.00157964
0.00197178
0.000808753
0.000211916
0.00042823
0.000521164
0.00054375
0.000540292
0.000521078
0.000482968
0.000444809
0.000412459
0.000388965
0.000375658
0.000377784
0.000390269
0.000424189
0.000497906
0.000656881
0.000949177
0.00158222
0.00193892
0.000791758
0.000180115
0.000399255
0.000509265
0.000547825
0.00054988
0.00054078
0.000516514
0.000484269
0.000455463
0.000433803
0.000420836
0.000423296
0.000436482
0.000472085
0.000548364
0.000716999
0.000989923
0.00158728
0.00184721
0.000764507
0.000146306
0.000338408
0.000477483
0.000555381
0.000576003
0.000573071
0.000559402
0.000532035
0.000505642
0.000484687
0.00047385
0.000478002
0.000494886
0.00053768
0.000624492
0.000820689
0.00108226
0.00160172
0.00168422
0.000717464
9.8314e-05
0.000287051
0.000487464
0.000596431
0.000658777
0.00066178
0.000653484
0.000631521
0.000604325
0.000582153
0.00058052
0.00059091
0.000620769
0.000691001
0.000812173
0.00107682
0.00135404
0.00163692
0.00150083
0.000656596
0.000100043
0.000302152
0.000534039
0.000666576
0.000741649
0.000772977
0.000786946
0.000801043
0.000818289
0.000846598
0.00089431
0.000972296
0.00107901
0.00124018
0.00143453
0.00172039
0.00183389
0.00172328
0.00137809
0.000570657
7.24069e-05
0.000111524
0.00020277
0.000293401
0.000359932
0.000402224
0.00042547
0.00043939
0.000446117
0.000450027
0.000451515
0.000454183
0.000457082
0.000463482
0.000468909
0.000484311
0.000504948
0.000528727
0.000523219
0.00046769
)
;

boundaryField
{
    movingWall
    {
        type            kqRWallFunction;
        value           nonuniform List<scalar> 
20
(
7.24069e-05
0.000111524
0.00020277
0.000293401
0.000359932
0.000402224
0.00042547
0.00043939
0.000446117
0.000450027
0.000451515
0.000454183
0.000457082
0.000463482
0.000468909
0.000484311
0.000504948
0.000528727
0.000523219
0.00046769
)
;
    }
    fixedWalls
    {
        type            kqRWallFunction;
        value           nonuniform List<scalar> 
60
(
8.33379e-06
3.64101e-05
0.000113408
0.000247199
0.000346439
0.000396811
0.000404405
0.000398347
0.000383208
0.000354203
0.000323974
0.000297313
0.000268817
0.000241866
0.000211916
0.000180115
0.000146306
9.8314e-05
0.000100043
7.24069e-05
0.000202999
0.000409218
0.000522912
0.000596725
0.000652056
0.00069691
0.000731852
0.000760671
0.000781
0.000796924
0.000804816
0.000808518
0.000809448
0.000808753
0.000791758
0.000764507
0.000717464
0.000656596
0.000570657
0.00046769
8.33379e-06
2.99273e-05
0.00011122
0.000213562
0.000279662
0.000331226
0.000373389
0.000413765
0.000449444
0.00048589
0.000520203
0.000556369
0.00059275
0.000615815
0.000626198
0.000626573
0.000578324
0.000455888
0.000282001
0.000202999
)
;
    }
    frontAndBack
    {
        type            empty;
    }
}


// ************************************************************************* //
