/*--------------------------------*- C++ -*----------------------------------*\
| =========                 |                                                 |
| \\      /  F ield         | OpenFOAM: The Open Source CFD Toolbox           |
|  \\    /   O peration     | Version:  5.0                                   |
|   \\  /    A nd           | Web:      www.OpenFOAM.org                      |
|    \\/     M anipulation  |                                                 |
\*---------------------------------------------------------------------------*/
FoamFile
{
    version     2.0;
    format      ascii;
    class       volScalarField;
    location    "10";
    object      nut;
}
// * * * * * * * * * * * * * * * * * * * * * * * * * * * * * * * * * * * * * //

dimensions      [0 2 -1 0 0 0 0];

internalField   nonuniform List<scalar> 
400
(
2.345e-07
8.42176e-07
3.12937e-06
6.00826e-06
7.86753e-06
9.31794e-06
1.05039e-05
1.16396e-05
1.26433e-05
1.36685e-05
1.46336e-05
1.56509e-05
1.66742e-05
1.73228e-05
1.76148e-05
1.76252e-05
1.62677e-05
1.28235e-05
7.93252e-06
5.71029e-06
1.02448e-06
4.32955e-06
7.65493e-06
1.49348e-05
1.92107e-05
2.50386e-05
2.91492e-05
3.45052e-05
3.85959e-05
4.25517e-05
4.54614e-05
4.763e-05
4.83765e-05
4.90506e-05
4.87596e-05
4.6629e-05
4.52452e-05
3.634e-05
2.04075e-05
1.15107e-05
3.19075e-06
1.41169e-05
2.33906e-05
3.04242e-05
3.70269e-05
4.30784e-05
4.83126e-05
5.31179e-05
5.61447e-05
5.89294e-05
6.06338e-05
6.17465e-05
6.19876e-05
6.19002e-05
6.06999e-05
5.74961e-05
5.38329e-05
4.8024e-05
2.74878e-05
1.47084e-05
6.95439e-06
2.62851e-05
3.40585e-05
4.08626e-05
4.69945e-05
5.20677e-05
5.65095e-05
6.06008e-05
6.36963e-05
6.62757e-05
6.74487e-05
6.81556e-05
6.85961e-05
6.86278e-05
6.79204e-05
6.48907e-05
5.83832e-05
5.47528e-05
3.60626e-05
1.67845e-05
9.74594e-06
3.32495e-05
4.06116e-05
4.67613e-05
5.3369e-05
5.91019e-05
6.40029e-05
6.73273e-05
6.83702e-05
6.82251e-05
6.81964e-05
6.86082e-05
6.93516e-05
7.02078e-05
7.11325e-05
7.11919e-05
6.44077e-05
5.87679e-05
4.27669e-05
1.83407e-05
1.11628e-05
3.62495e-05
4.40118e-05
5.21726e-05
5.92057e-05
6.4547e-05
6.7093e-05
6.69009e-05
6.63049e-05
6.61456e-05
6.61753e-05
6.65976e-05
6.72039e-05
6.84687e-05
7.05341e-05
7.28944e-05
7.02765e-05
6.21754e-05
4.92625e-05
1.96023e-05
1.13763e-05
3.6872e-05
4.77322e-05
5.62352e-05
6.21276e-05
6.52379e-05
6.59139e-05
6.49599e-05
6.45193e-05
6.47864e-05
6.52251e-05
6.59143e-05
6.61332e-05
6.67385e-05
6.88135e-05
7.26524e-05
7.62973e-05
6.58345e-05
5.44263e-05
2.0585e-05
1.12059e-05
3.78839e-05
5.01254e-05
5.78833e-05
6.28999e-05
6.48378e-05
6.45923e-05
6.36794e-05
6.39145e-05
6.49692e-05
6.60749e-05
6.6663e-05
6.67139e-05
6.68821e-05
6.74704e-05
7.11065e-05
7.74357e-05
7.01197e-05
5.92783e-05
2.13956e-05
1.078e-05
3.74007e-05
5.04402e-05
5.82677e-05
6.2803e-05
6.42043e-05
6.36809e-05
6.32036e-05
6.43393e-05
6.6079e-05
6.74764e-05
6.79842e-05
6.75377e-05
6.71197e-05
6.75448e-05
6.93799e-05
7.51601e-05
7.4339e-05
6.28327e-05
2.19673e-05
9.9641e-06
3.71571e-05
5.02465e-05
5.81335e-05
6.25172e-05
6.36393e-05
6.32509e-05
6.32511e-05
6.48647e-05
6.68482e-05
6.81185e-05
6.8445e-05
6.8174e-05
6.79508e-05
6.81369e-05
6.98404e-05
7.42225e-05
7.68071e-05
6.62451e-05
2.24152e-05
9.11376e-06
3.52207e-05
4.876e-05
5.70492e-05
6.14941e-05
6.31257e-05
6.28053e-05
6.2783e-05
6.39335e-05
6.57389e-05
6.73789e-05
6.78453e-05
6.79729e-05
6.79701e-05
6.86955e-05
7.01817e-05
7.41091e-05
7.87748e-05
6.8755e-05
2.26372e-05
8.36375e-06
3.30098e-05
4.73908e-05
5.61325e-05
6.11072e-05
6.22487e-05
6.25202e-05
6.24755e-05
6.32579e-05
6.45792e-05
6.58021e-05
6.60162e-05
6.65004e-05
6.75849e-05
6.87945e-05
7.05738e-05
7.39964e-05
7.99157e-05
7.05868e-05
2.27413e-05
7.56215e-06
2.90611e-05
4.42623e-05
5.32679e-05
5.92077e-05
6.17883e-05
6.21011e-05
6.20069e-05
6.22756e-05
6.29165e-05
6.39401e-05
6.42646e-05
6.50464e-05
6.66349e-05
6.89341e-05
7.09547e-05
7.38416e-05
8.08676e-05
7.12418e-05
2.27674e-05
6.80401e-06
2.63581e-05
4.13663e-05
5.05458e-05
5.72586e-05
6.09906e-05
6.15517e-05
6.15375e-05
6.15539e-05
6.17007e-05
6.26863e-05
6.31638e-05
6.42702e-05
6.63069e-05
6.91566e-05
7.20722e-05
7.37424e-05
8.0644e-05
7.12248e-05
2.27478e-05
5.9615e-06
2.20291e-05
3.66646e-05
4.74406e-05
5.47195e-05
5.99254e-05
6.10925e-05
6.13283e-05
6.14143e-05
6.13563e-05
6.23054e-05
6.28379e-05
6.40279e-05
6.6103e-05
6.89472e-05
7.2617e-05
7.27692e-05
7.88947e-05
6.89254e-05
2.22696e-05
5.06691e-06
1.93571e-05
3.3012e-05
4.36562e-05
5.09352e-05
5.69492e-05
6.03179e-05
6.1195e-05
6.15781e-05
6.14815e-05
6.21557e-05
6.25627e-05
6.34906e-05
6.50999e-05
6.72846e-05
7.15762e-05
7.04987e-05
7.5699e-05
6.60511e-05
2.15031e-05
4.1159e-06
1.476e-05
2.82775e-05
4.00026e-05
4.75871e-05
5.30957e-05
5.75422e-05
5.90292e-05
5.96091e-05
5.96624e-05
5.99463e-05
6.02195e-05
6.08232e-05
6.17867e-05
6.30062e-05
6.79513e-05
6.682e-05
7.05228e-05
6.05864e-05
2.01797e-05
2.76578e-06
1.20341e-05
2.64798e-05
3.71707e-05
4.64868e-05
5.05133e-05
5.45835e-05
5.65404e-05
5.63529e-05
5.58681e-05
5.5495e-05
5.54104e-05
5.55857e-05
5.66743e-05
5.74321e-05
6.25435e-05
6.60492e-05
6.34805e-05
5.19669e-05
1.84677e-05
2.81423e-06
1.33608e-05
2.46205e-05
3.24144e-05
3.82448e-05
4.17692e-05
4.42394e-05
4.66632e-05
4.82426e-05
4.98528e-05
5.16961e-05
5.35263e-05
5.60513e-05
5.96632e-05
6.36233e-05
6.98843e-05
6.68242e-05
6.07416e-05
4.44659e-05
1.60504e-05
2.03684e-06
3.13713e-06
5.70381e-06
8.25315e-06
1.01245e-05
1.1314e-05
1.19678e-05
1.23592e-05
1.25483e-05
1.26582e-05
1.27e-05
1.27748e-05
1.28563e-05
1.3036e-05
1.31885e-05
1.36216e-05
1.42019e-05
1.48707e-05
1.47158e-05
1.31542e-05
)
;

boundaryField
{
    movingWall
    {
        type            nutkWallFunction;
        Cmu             0.09;
        kappa           0.41;
        E               9.8;
        value           uniform 0;
    }
    fixedWalls
    {
        type            nutkWallFunction;
        Cmu             0.09;
        kappa           0.41;
        E               9.8;
        value           uniform 0;
    }
    frontAndBack
    {
        type            empty;
    }
}


// ************************************************************************* //
