/*--------------------------------*- C++ -*----------------------------------*\
| =========                 |                                                 |
| \\      /  F ield         | OpenFOAM: The Open Source CFD Toolbox           |
|  \\    /   O peration     | Version:  5.0                                   |
|   \\  /    A nd           | Web:      www.OpenFOAM.org                      |
|    \\/     M anipulation  |                                                 |
\*---------------------------------------------------------------------------*/
FoamFile
{
    version     2.0;
    format      ascii;
    class       volScalarField;
    location    "10";
    object      p;
}
// * * * * * * * * * * * * * * * * * * * * * * * * * * * * * * * * * * * * * //

dimensions      [0 2 -2 0 0 0 0];

internalField   nonuniform List<scalar> 
400
(
2.64619e-08
-9.63432e-05
-0.000157988
-0.000456689
-0.00141658
-0.00298118
-0.00477518
-0.00647135
-0.00782838
-0.00872018
-0.00903613
-0.00868608
-0.00766355
-0.00595389
-0.00356408
-0.000638348
0.00250878
0.00527452
0.00698749
0.00735523
9.78735e-05
-1.76687e-05
-0.000279001
-0.000970391
-0.00219752
-0.00384221
-0.00560696
-0.00723441
-0.00854832
-0.00942482
-0.00976644
-0.00952589
-0.0086534
-0.00710685
-0.00491412
-0.00215725
0.000905821
0.00378785
0.00583493
0.00664926
0.000255407
-0.000115206
-0.000809792
-0.00195949
-0.00351884
-0.00528131
-0.00702754
-0.00859283
-0.00985258
-0.0106735
-0.010992
-0.010778
-0.0100124
-0.00868336
-0.00679249
-0.00438853
-0.00162246
0.00119498
0.00354522
0.00472663
-5.07745e-05
-0.000666485
-0.00180155
-0.00338071
-0.00520268
-0.00705503
-0.00876931
-0.0102266
-0.0113324
-0.0120356
-0.012307
-0.0121266
-0.0114753
-0.0103496
-0.00875448
-0.00672292
-0.00433967
-0.00178549
0.000563321
0.00181723
-0.000973109
-0.00179489
-0.00323218
-0.00504245
-0.00696467
-0.00880002
-0.0104159
-0.011734
-0.0127072
-0.0133148
-0.0135444
-0.0133868
-0.0128366
-0.011896
-0.0105728
-0.00889178
-0.00690391
-0.0047098
-0.00257242
-0.00138307
-0.00245988
-0.00336415
-0.00489422
-0.00673464
-0.00861901
-0.0103581
-0.011845
-0.0130296
-0.0138905
-0.0144196
-0.0146141
-0.0144749
-0.0140063
-0.0132174
-0.0121213
-0.0107395
-0.00910884
-0.00729272
-0.00554793
-0.00442067
-0.00415825
-0.00506136
-0.00653182
-0.00828537
-0.0100557
-0.0116629
-0.0130173
-0.0140834
-0.0148512
-0.0153197
-0.0154909
-0.0153703
-0.0149668
-0.0142948
-0.0133738
-0.0122269
-0.0108892
-0.00941052
-0.00804147
-0.00703472
-0.00572755
-0.00657976
-0.00793323
-0.00956343
-0.0111998
-0.0126762
-0.0139138
-0.0148842
-0.0155817
-0.0160079
-0.0161665
-0.0160638
-0.01571
-0.015123
-0.0143284
-0.0133547
-0.0122414
-0.0110325
-0.00997496
-0.00908006
-0.00694041
-0.00773749
-0.00896788
-0.0104839
-0.0120028
-0.0133742
-0.0145252
-0.0154289
-0.0160801
-0.0164804
-0.0166332
-0.0165443
-0.0162241
-0.0156919
-0.0149788
-0.0141212
-0.0131717
-0.0121494
-0.0113164
-0.0105231
-0.00771267
-0.00842344
-0.00956293
-0.0110013
-0.0124378
-0.0137438
-0.0148457
-0.0157144
-0.0163426
-0.0167308
-0.0168819
-0.0168005
-0.0164971
-0.0159915
-0.0153194
-0.0145231
-0.0136865
-0.0127569
-0.0121113
-0.0113424
-0.00799992
-0.00862713
-0.00971165
-0.0111005
-0.0124967
-0.0137797
-0.0148712
-0.0157363
-0.016364
-0.0167528
-0.0169048
-0.0168238
-0.0165201
-0.0160141
-0.0153457
-0.0145561
-0.0137942
-0.0128459
-0.0123955
-0.0115334
-0.00779229
-0.00837393
-0.00942247
-0.0107896
-0.0121851
-0.0134821
-0.0145981
-0.0154896
-0.0161391
-0.0165419
-0.016698
-0.0166104
-0.0162898
-0.0157575
-0.0150575
-0.0142495
-0.0134575
-0.0124639
-0.0122111
-0.0110814
-0.00716937
-0.00773291
-0.00875613
-0.0101008
-0.0115199
-0.0128593
-0.0140292
-0.0149745
-0.015668
-0.0160987
-0.0162639
-0.0161645
-0.015812
-0.0152294
-0.0144674
-0.0135915
-0.0127169
-0.0116865
-0.0115073
-0.0100187
-0.00626593
-0.00679739
-0.00777938
-0.0090833
-0.010522
-0.0119207
-0.0131696
-0.0141953
-0.0149561
-0.0154314
-0.0156136
-0.0155009
-0.0151052
-0.0144515
-0.0135981
-0.012611
-0.0116221
-0.0105202
-0.0102825
-0.00843039
-0.00525844
-0.00571451
-0.00659042
-0.00781078
-0.00924227
-0.0107029
-0.0120486
-0.0131778
-0.0140283
-0.0145664
-0.0147778
-0.0146563
-0.0142122
-0.0134723
-0.0125033
-0.0113674
-0.0102231
-0.0089701
-0.00857618
-0.00634793
-0.00435152
-0.0046211
-0.0052712
-0.00633823
-0.00773167
-0.00925081
-0.0107066
-0.0119603
-0.0129243
-0.0135472
-0.0138066
-0.0136928
-0.0132103
-0.0123827
-0.0112821
-0.00995963
-0.00859387
-0.00706932
-0.0063776
-0.00356508
-0.00373537
-0.00365818
-0.00395083
-0.00479333
-0.00611782
-0.00768472
-0.00925462
-0.0106464
-0.0117438
-0.0124738
-0.0128029
-0.0127144
-0.0122241
-0.0113235
-0.0100837
-0.00852774
-0.00682752
-0.00483131
-0.00347145
0.000735971
-0.0034323
-0.00282448
-0.00268583
-0.00328028
-0.00452195
-0.00612071
-0.0077961
-0.00933343
-0.0105837
-0.0114472
-0.0118764
-0.0118445
-0.0113653
-0.0104272
-0.00906065
-0.00722385
-0.00503137
-0.00218833
0.000720601
0.00832747
-0.00337485
-0.00214916
-0.00169933
-0.00210209
-0.00326321
-0.00488066
-0.00664555
-0.0083123
-0.0097022
-0.0106998
-0.0112423
-0.011298
-0.0108519
-0.00988166
-0.00837805
-0.00623426
-0.00337074
0.00106627
0.00732455
0.0204135
-0.0038563
-0.000739757
-0.000172299
-0.000750039
-0.00195533
-0.00362795
-0.00550881
-0.00731382
-0.00883992
-0.00995704
-0.0105959
-0.0107174
-0.0102979
-0.00931224
-0.00771663
-0.00535079
-0.00135236
0.00569004
0.0177494
0.0356966
)
;

boundaryField
{
    movingWall
    {
        type            zeroGradient;
    }
    fixedWalls
    {
        type            zeroGradient;
    }
    frontAndBack
    {
        type            empty;
    }
}


// ************************************************************************* //
