/*--------------------------------*- C++ -*----------------------------------*\
| =========                 |                                                 |
| \\      /  F ield         | OpenFOAM: The Open Source CFD Toolbox           |
|  \\    /   O peration     | Version:  5.0                                   |
|   \\  /    A nd           | Web:      www.OpenFOAM.org                      |
|    \\/     M anipulation  |                                                 |
\*---------------------------------------------------------------------------*/
FoamFile
{
    version     2.0;
    format      ascii;
    class       surfaceScalarField;
    location    "10";
    object      phi;
}
// * * * * * * * * * * * * * * * * * * * * * * * * * * * * * * * * * * * * * //

dimensions      [0 3 -1 0 0 0 0];

internalField   nonuniform List<scalar> 
760
(
1.14714e-07
-1.14716e-07
-1.89856e-07
3.04569e-07
-1.07361e-06
8.83752e-07
-2.42402e-06
1.35041e-06
-3.83329e-06
1.40927e-06
-5.08654e-06
1.25325e-06
-6.14206e-06
1.05552e-06
-6.97746e-06
8.35405e-07
-7.5863e-06
6.08831e-07
-7.98697e-06
4.00678e-07
-8.19221e-06
2.05232e-07
-8.19032e-06
-1.88446e-09
-7.97967e-06
-2.10651e-07
-7.55907e-06
-4.20602e-07
-6.86003e-06
-6.99035e-07
-5.86112e-06
-9.98911e-07
-4.50652e-06
-1.3546e-06
-2.84218e-06
-1.66433e-06
-1.09084e-06
-1.75134e-06
-1.09084e-06
-4.43674e-07
3.28958e-07
-1.48366e-06
1.34455e-06
-2.86362e-06
2.26372e-06
-4.11442e-06
2.60121e-06
-5.19849e-06
2.49334e-06
-6.14635e-06
2.2011e-06
-6.91995e-06
1.82913e-06
-7.52394e-06
1.43939e-06
-7.97476e-06
1.05965e-06
-8.26427e-06
6.90185e-07
-8.37751e-06
3.18474e-07
-8.31793e-06
-6.14641e-08
-8.09677e-06
-4.31812e-07
-7.67618e-06
-8.41196e-07
-7.05624e-06
-1.31897e-06
-6.18828e-06
-1.86687e-06
-5.03778e-06
-2.50511e-06
-3.5429e-06
-3.15921e-06
-1.7397e-06
-3.55455e-06
-2.83054e-06
-1.03845e-06
1.36741e-06
-2.38086e-06
2.68696e-06
-3.56099e-06
3.44384e-06
-4.54398e-06
3.5842e-06
-5.37529e-06
3.32465e-06
-6.06141e-06
2.88723e-06
-6.59998e-06
2.3677e-06
-6.9809e-06
1.82032e-06
-7.22458e-06
1.30332e-06
-7.33469e-06
8.00293e-07
-7.33317e-06
3.16959e-07
-7.22901e-06
-1.65623e-07
-7.0058e-06
-6.55024e-07
-6.64784e-06
-1.19916e-06
-6.14308e-06
-1.82373e-06
-5.45765e-06
-2.5523e-06
-4.56269e-06
-3.40007e-06
-3.39293e-06
-4.32897e-06
-1.86752e-06
-5.07996e-06
-4.69805e-06
-1.2566e-06
2.62401e-06
-2.48345e-06
3.91381e-06
-3.47417e-06
4.43457e-06
-4.24981e-06
4.35984e-06
-4.86147e-06
3.93631e-06
-5.32604e-06
3.35179e-06
-5.65931e-06
2.70098e-06
-5.88826e-06
2.04927e-06
-6.02044e-06
1.4355e-06
-6.06983e-06
8.49686e-07
-6.03749e-06
2.84615e-07
-5.92483e-06
-2.78283e-07
-5.72012e-06
-8.59727e-07
-5.42216e-06
-1.49712e-06
-5.02135e-06
-2.22454e-06
-4.49433e-06
-3.07932e-06
-3.80803e-06
-4.08637e-06
-2.90669e-06
-5.23032e-06
-1.65941e-06
-6.32723e-06
-6.35746e-06
-1.17993e-06
3.80394e-06
-2.21812e-06
4.952e-06
-3.024e-06
5.24045e-06
-3.63384e-06
4.96969e-06
-4.0855e-06
4.38796e-06
-4.40685e-06
3.67313e-06
-4.62708e-06
2.92121e-06
-4.77116e-06
2.19335e-06
-4.84542e-06
1.50976e-06
-4.85635e-06
8.60617e-07
-4.80447e-06
2.32733e-07
-4.68948e-06
-3.93276e-07
-4.50782e-06
-1.04138e-06
-4.26108e-06
-1.74386e-06
-3.94659e-06
-2.53903e-06
-3.55161e-06
-3.47431e-06
-3.04275e-06
-4.59522e-06
-2.35454e-06
-5.91853e-06
-1.38946e-06
-7.29232e-06
-7.74692e-06
-9.69863e-07
4.7738e-06
-1.80066e-06
5.7828e-06
-2.43962e-06
5.87941e-06
-2.91006e-06
5.44013e-06
-3.24581e-06
4.72371e-06
-3.4774e-06
3.90473e-06
-3.63333e-06
3.07714e-06
-3.7311e-06
2.29111e-06
-3.77654e-06
1.5552e-06
-3.77295e-06
8.57028e-07
-3.72034e-06
1.80126e-07
-3.61725e-06
-4.96374e-07
-3.46256e-06
-1.19607e-06
-3.25884e-06
-1.94757e-06
-3.00973e-06
-2.78815e-06
-2.71438e-06
-3.76965e-06
-2.3577e-06
-4.9519e-06
-1.87577e-06
-6.40046e-06
-1.12444e-06
-8.04365e-06
-8.87136e-06
-7.35566e-07
5.50937e-06
-1.35235e-06
6.39958e-06
-1.83031e-06
6.35737e-06
-2.1794e-06
5.78922e-06
-2.42752e-06
4.97182e-06
-2.59937e-06
4.07659e-06
-2.71624e-06
3.194e-06
-2.78991e-06
2.36479e-06
-2.82526e-06
1.59054e-06
-2.82402e-06
8.55794e-07
-2.78454e-06
1.40646e-07
-2.70423e-06
-5.76685e-07
-2.58154e-06
-1.31876e-06
-2.41927e-06
-2.10984e-06
-2.22514e-06
-2.98229e-06
-2.00601e-06
-3.98878e-06
-1.75658e-06
-5.20133e-06
-1.4257e-06
-6.73134e-06
-9.20711e-07
-8.54864e-06
-9.79207e-06
-4.79952e-07
5.98932e-06
-9.10188e-07
6.82982e-06
-1.23968e-06
6.68686e-06
-1.48333e-06
6.03287e-06
-1.66009e-06
5.14858e-06
-1.7868e-06
4.20331e-06
-1.87674e-06
3.28394e-06
-1.93684e-06
2.42488e-06
-1.97025e-06
1.62396e-06
-1.97743e-06
8.62975e-07
-1.95595e-06
1.19166e-07
-1.90293e-06
-6.2971e-07
-1.81666e-06
-1.40503e-06
-1.69962e-06
-2.22688e-06
-1.56103e-06
-3.12087e-06
-1.41314e-06
-4.13667e-06
-1.25622e-06
-5.35825e-06
-1.05029e-06
-6.93727e-06
-7.11356e-07
-8.88757e-06
-1.05034e-05
-2.57852e-07
6.24717e-06
-4.96796e-07
7.06876e-06
-6.83171e-07
6.87324e-06
-8.31017e-07
6.18072e-06
-9.43806e-07
5.26137e-06
-1.0307e-06
4.2902e-06
-1.09728e-06
3.35053e-06
-1.14603e-06
2.47363e-06
-1.17817e-06
1.65609e-06
-1.19343e-06
8.78242e-07
-1.19001e-06
1.15744e-07
-1.16553e-06
-6.54191e-07
-1.11875e-06
-1.4518e-06
-1.05178e-06
-2.29386e-06
-9.7371e-07
-3.19894e-06
-8.98557e-07
-4.21182e-06
-8.30228e-07
-5.42658e-06
-7.38105e-07
-7.02939e-06
-5.62566e-07
-9.06311e-06
-1.1066e-05
-2.86256e-08
6.2758e-06
-1.05578e-07
7.14571e-06
-1.67172e-07
6.93483e-06
-2.19287e-07
6.23283e-06
-2.67256e-07
5.30934e-06
-3.12592e-07
4.33553e-06
-3.54013e-07
3.39195e-06
-3.89556e-07
2.50917e-06
-4.18252e-07
1.68479e-06
-4.39654e-07
8.99644e-07
-4.53149e-07
1.29239e-07
-4.57592e-07
-6.49748e-07
-4.5281e-07
-1.45659e-06
-4.40586e-07
-2.30608e-06
-4.29093e-07
-3.21043e-06
-4.27575e-07
-4.21334e-06
-4.59096e-07
-5.39506e-06
-4.72708e-07
-7.01578e-06
-4.18773e-07
-9.11705e-06
-1.14848e-05
1.85808e-07
6.08999e-06
2.83e-07
7.04852e-06
3.52559e-07
6.86527e-06
3.81656e-07
6.20374e-06
3.93508e-07
5.29748e-06
3.89933e-07
4.33911e-06
3.76286e-07
3.4056e-06
3.57022e-07
2.52844e-06
3.34324e-07
1.70749e-06
3.08529e-07
9.2544e-07
2.79e-07
1.58767e-07
2.45292e-07
-6.1604e-07
2.06325e-07
-1.41762e-06
1.60149e-07
-2.2599e-06
1.00552e-07
-3.15084e-06
1.8275e-09
-4.11462e-06
-1.04602e-07
-5.28863e-06
-2.4297e-07
-6.87741e-06
-3.17814e-07
-9.0422e-06
-1.18026e-05
3.88326e-07
5.70167e-06
6.49573e-07
6.78727e-06
8.44041e-07
6.67081e-06
9.66835e-07
6.08094e-06
1.04673e-06
5.21759e-06
1.09245e-06
4.29338e-06
1.11282e-06
3.38523e-06
1.11456e-06
2.52669e-06
1.10102e-06
1.72103e-06
1.07251e-06
9.53952e-07
1.02707e-06
2.04205e-07
9.62714e-07
-5.51682e-07
8.76463e-07
-1.33137e-06
7.65828e-07
-2.14927e-06
6.24644e-07
-3.00965e-06
4.51118e-07
-3.94109e-06
2.21121e-07
-5.05864e-06
-5.07959e-08
-6.60549e-06
-2.03545e-07
-8.88946e-06
-1.20061e-05
5.87767e-07
5.1139e-06
1.00698e-06
6.36806e-06
1.32293e-06
6.35486e-06
1.54549e-06
5.85838e-06
1.7011e-06
5.06198e-06
1.80564e-06
4.18884e-06
1.86897e-06
3.3219e-06
1.89882e-06
2.49684e-06
1.89933e-06
1.72053e-06
1.87094e-06
9.82339e-07
1.81055e-06
2.64592e-07
1.71506e-06
-4.56195e-07
1.57972e-06
-1.19602e-06
1.40066e-06
-1.97021e-06
1.17431e-06
-2.7833e-06
8.97639e-07
-3.66442e-06
5.48889e-07
-4.70989e-06
1.81498e-07
-6.2381e-06
-6.30586e-08
-8.6449e-06
-1.20692e-05
7.59618e-07
4.35428e-06
1.32756e-06
5.80011e-06
1.7629e-06
5.91952e-06
2.10228e-06
5.51901e-06
2.35166e-06
4.8126e-06
2.53066e-06
4.00985e-06
2.6505e-06
3.20206e-06
2.71933e-06
2.42801e-06
2.74172e-06
1.69813e-06
2.71831e-06
1.00575e-06
2.64531e-06
3.37596e-07
2.51797e-06
-3.28855e-07
2.33125e-06
-1.0093e-06
2.07955e-06
-1.71851e-06
1.75911e-06
-2.46286e-06
1.37139e-06
-3.27671e-06
9.05945e-07
-4.24444e-06
4.35914e-07
-5.76807e-06
8.49609e-08
-8.29395e-06
-1.19842e-05
9.05357e-07
3.44892e-06
1.60175e-06
5.10372e-06
2.1623e-06
5.35897e-06
2.62882e-06
5.05249e-06
2.99043e-06
4.45098e-06
3.26093e-06
3.73936e-06
3.45267e-06
3.01031e-06
3.57379e-06
2.30689e-06
3.62846e-06
1.64346e-06
3.61763e-06
1.01657e-06
3.53655e-06
4.18682e-07
3.37818e-06
-1.70488e-07
3.13952e-06
-7.70642e-07
2.81268e-06
-1.39167e-06
2.39245e-06
-2.04263e-06
1.88954e-06
-2.77379e-06
1.29767e-06
-3.65257e-06
7.06986e-07
-5.17739e-06
2.29838e-07
-7.8168e-06
-1.17544e-05
9.25699e-07
2.52322e-06
1.73827e-06
4.29116e-06
2.44927e-06
4.64796e-06
3.06582e-06
4.43594e-06
3.56967e-06
3.94713e-06
3.9601e-06
3.34892e-06
4.24656e-06
2.72385e-06
4.43838e-06
2.11508e-06
4.53948e-06
1.54236e-06
4.55194e-06
1.00412e-06
4.47278e-06
4.97842e-07
4.28967e-06
1.26149e-08
4.00357e-06
-4.84534e-07
3.60598e-06
-9.94084e-07
3.08892e-06
-1.52558e-06
2.47345e-06
-2.15831e-06
1.75092e-06
-2.93004e-06
1.03453e-06
-4.461e-06
4.28823e-07
-7.21109e-06
-1.13256e-05
8.39575e-07
1.68365e-06
1.73274e-06
3.39799e-06
2.60905e-06
3.77165e-06
3.39334e-06
3.65165e-06
4.05686e-06
3.28362e-06
4.59087e-06
2.81491e-06
4.9938e-06
2.32091e-06
5.27375e-06
1.83513e-06
5.43513e-06
1.38098e-06
5.48143e-06
9.57814e-07
5.41152e-06
5.67755e-07
5.22919e-06
1.94944e-07
4.9111e-06
-1.66444e-07
4.46908e-06
-5.52064e-07
3.88358e-06
-9.40075e-07
3.18106e-06
-1.45579e-06
2.35046e-06
-2.09944e-06
1.50647e-06
-3.61702e-06
7.05375e-07
-6.40999e-06
-1.06202e-05
3.63112e-07
1.32054e-06
1.38418e-06
2.37692e-06
2.45209e-06
2.70374e-06
3.44502e-06
2.65872e-06
4.30115e-06
2.42749e-06
5.00571e-06
2.11035e-06
5.55535e-06
1.77128e-06
5.95268e-06
1.4378e-06
6.2059e-06
1.12776e-06
6.32223e-06
8.41488e-07
6.3054e-06
5.84582e-07
6.16516e-06
3.35183e-07
5.89493e-06
1.03788e-07
5.48773e-06
-1.44863e-07
4.92039e-06
-3.72738e-07
4.21942e-06
-7.54821e-07
3.35386e-06
-1.23388e-06
2.41811e-06
-2.68127e-06
1.23869e-06
-5.23057e-06
-9.38149e-06
-4.98539e-07
1.81908e-06
6.28194e-07
1.25019e-06
2.01266e-06
1.31928e-06
3.28548e-06
1.3859e-06
4.38734e-06
1.32563e-06
5.31401e-06
1.18368e-06
6.06731e-06
1.01799e-06
6.64425e-06
8.60855e-07
7.06068e-06
7.1133e-07
7.32561e-06
5.76561e-07
7.45791e-06
4.52275e-07
7.45569e-06
3.3741e-07
7.32853e-06
2.3094e-07
7.06812e-06
1.15554e-07
6.68639e-06
8.98774e-09
6.1761e-06
-2.44526e-07
5.48162e-06
-5.39401e-07
4.52752e-06
-1.72716e-06
2.66059e-06
-3.36365e-06
-6.7209e-06
1.81908e-06
3.06927e-06
4.38854e-06
5.77444e-06
7.10006e-06
8.28375e-06
9.30173e-06
1.01626e-05
1.08739e-05
1.14505e-05
1.19028e-05
1.22402e-05
1.24711e-05
1.25867e-05
1.25956e-05
1.23511e-05
1.18117e-05
1.00846e-05
6.7209e-06
)
;

boundaryField
{
    movingWall
    {
        type            calculated;
        value           uniform 0;
    }
    fixedWalls
    {
        type            calculated;
        value           uniform 0;
    }
    frontAndBack
    {
        type            empty;
        value           nonuniform 0();
    }
}


// ************************************************************************* //
