/*--------------------------------*- C++ -*----------------------------------*\
| =========                 |                                                 |
| \\      /  F ield         | OpenFOAM: The Open Source CFD Toolbox           |
|  \\    /   O peration     | Version:  5.0                                   |
|   \\  /    A nd           | Web:      www.OpenFOAM.org                      |
|    \\/     M anipulation  |                                                 |
\*---------------------------------------------------------------------------*/
FoamFile
{
    version     2.0;
    format      ascii;
    class       volVectorField;
    location    "10";
    object      U;
}
// * * * * * * * * * * * * * * * * * * * * * * * * * * * * * * * * * * * * * //

dimensions      [0 1 -1 0 0 0 0];

internalField   nonuniform List<vector> 
400
(
(0.00291222 -0.00334628 0)
(0.00115991 -0.000340718 0)
(-0.00779459 0.00446249 0)
(-0.0324237 0.0121467 0)
(-0.0655883 0.0144207 0)
(-0.09199 0.012486 0)
(-0.115719 0.0106089 0)
(-0.133573 0.00823963 0)
(-0.147787 0.00620412 0)
(-0.157357 0.00395023 0)
(-0.162876 0.0021401 0)
(-0.164923 0.000214054 0)
(-0.163101 -0.00303855 0)
(-0.155948 -0.00512533 0)
(-0.144257 -0.00858711 0)
(-0.126174 -0.0114981 0)
(-0.102197 -0.0150001 0)
(-0.0719585 -0.0169552 0)
(-0.0385231 -0.0153359 0)
(-0.0093962 -0.00427673 0)
(-0.00257054 -0.000977391 0)
(-0.0147743 0.0136787 0)
(-0.0421164 0.0328816 0)
(-0.0708344 0.0411948 0)
(-0.0955328 0.0398199 0)
(-0.115889 0.0354504 0)
(-0.133015 0.0297679 0)
(-0.145695 0.0238756 0)
(-0.156466 0.0171364 0)
(-0.163484 0.0111805 0)
(-0.167586 0.00530014 0)
(-0.168059 -0.000491173 0)
(-0.165094 -0.006878 0)
(-0.158486 -0.0139089 0)
(-0.147755 -0.0223372 0)
(-0.132124 -0.0318904 0)
(-0.111332 -0.0427579 0)
(-0.0850377 -0.0524646 0)
(-0.0530102 -0.0551831 0)
(-0.0196973 -0.0363632 0)
(-0.00891771 0.0159 0)
(-0.0333249 0.0424034 0)
(-0.0602867 0.0584372 0)
(-0.0828471 0.0621249 0)
(-0.101145 0.0580481 0)
(-0.11609 0.050474 0)
(-0.128002 0.0413401 0)
(-0.137065 0.0317971 0)
(-0.143191 0.0232388 0)
(-0.146298 0.0146131 0)
(-0.147346 0.00612249 0)
(-0.146157 -0.00253437 0)
(-0.143107 -0.011531 0)
(-0.137116 -0.0213916 0)
(-0.128384 -0.0327622 0)
(-0.116087 -0.0460698 0)
(-0.0997675 -0.0616566 0)
(-0.0789343 -0.0786128 0)
(-0.0519293 -0.0910252 0)
(-0.0223375 -0.079582 0)
(-0.0128518 0.0404553 0)
(-0.0385601 0.0666524 0)
(-0.0617404 0.078934 0)
(-0.079192 0.0792842 0)
(-0.0927677 0.0725174 0)
(-0.103218 0.0623523 0)
(-0.110875 0.0506809 0)
(-0.116297 0.0387655 0)
(-0.119657 0.0273409 0)
(-0.121394 0.0163498 0)
(-0.121559 0.00583979 0)
(-0.120093 -0.00470029 0)
(-0.116929 -0.0157061 0)
(-0.111838 -0.0278043 0)
(-0.104792 -0.0416319 0)
(-0.0954075 -0.0578309 0)
(-0.0829844 -0.0767683 0)
(-0.066655 -0.097888 0)
(-0.0444779 -0.116912 0)
(-0.0202608 -0.114701 0)
(-0.0128521 0.0635199 0)
(-0.0360827 0.0882046 0)
(-0.0547063 0.0963309 0)
(-0.0684178 0.0931564 0)
(-0.0786095 0.0833332 0)
(-0.0859183 0.0704421 0)
(-0.0909951 0.0564174 0)
(-0.0944638 0.0425695 0)
(-0.0965427 0.0294741 0)
(-0.097373 0.0170552 0)
(-0.0969516 0.00509959 0)
(-0.0952711 -0.00684938 0)
(-0.0922897 -0.0192486 0)
(-0.0879623 -0.0327797 0)
(-0.0822928 -0.048212 0)
(-0.0751905 -0.0664361 0)
(-0.0661318 -0.0882219 0)
(-0.0537588 -0.113574 0)
(-0.0360533 -0.138923 0)
(-0.0178321 -0.144317 0)
(-0.0108465 0.0847136 0)
(-0.0298329 0.106751 0)
(-0.0444388 0.110877 0)
(-0.0551469 0.104077 0)
(-0.0627167 0.0912446 0)
(-0.0679526 0.0759452 0)
(-0.0715378 0.060123 0)
(-0.073965 0.0449327 0)
(-0.0753434 0.0306788 0)
(-0.0757399 0.0171474 0)
(-0.0751705 0.00404892 0)
(-0.0736065 -0.00902539 0)
(-0.071011 -0.0225404 0)
(-0.0673872 -0.0371188 0)
(-0.0627997 -0.0535428 0)
(-0.0573158 -0.0728222 0)
(-0.0508032 -0.0960789 0)
(-0.0418595 -0.124181 0)
(-0.0303052 -0.155242 0)
(-0.0121157 -0.168406 0)
(-0.00885422 0.102222 0)
(-0.0224223 0.121538 0)
(-0.033538 0.122305 0)
(-0.0414841 0.112369 0)
(-0.0469817 0.0970793 0)
(-0.0507997 0.0799351 0)
(-0.0534541 0.0628108 0)
(-0.0552757 0.046622 0)
(-0.0563293 0.0314686 0)
(-0.0566608 0.0170782 0)
(-0.0562548 0.00309738 0)
(-0.0550527 -0.0109001 0)
(-0.053 -0.025365 0)
(-0.0501087 -0.0408261 0)
(-0.0464817 -0.0579992 0)
(-0.0422621 -0.077955 0)
(-0.0376276 -0.102012 0)
(-0.0311598 -0.132077 0)
(-0.0243892 -0.167148 0)
(-0.0097069 -0.188239 0)
(-0.00588479 0.115065 0)
(-0.014897 0.132526 0)
(-0.0228958 0.13073 0)
(-0.0283176 0.118453 0)
(-0.0321271 0.10139 0)
(-0.0348568 0.082936 0)
(-0.0368407 0.0648728 0)
(-0.038274 0.0479441 0)
(-0.0391849 0.0321386 0)
(-0.0395909 0.017123 0)
(-0.0394531 0.00247551 0)
(-0.0387013 -0.01225 0)
(-0.037276 -0.027478 0)
(-0.0351927 -0.043646 0)
(-0.0325732 -0.0613406 0)
(-0.029579 -0.0816091 0)
(-0.0266409 -0.105989 0)
(-0.0222732 -0.137237 0)
(-0.0196488 -0.175055 0)
(-0.00614459 -0.203916 0)
(-0.00362978 0.123031 0)
(-0.00792519 0.139411 0)
(-0.0128124 0.136023 0)
(-0.0159056 0.122457 0)
(-0.0182372 0.104327 0)
(-0.0200192 0.0850875 0)
(-0.0214169 0.0664378 0)
(-0.0225166 0.0490258 0)
(-0.0233086 0.0327905 0)
(-0.0237848 0.0173493 0)
(-0.0239052 0.00223161 0)
(-0.0236129 -0.013023 0)
(-0.0228616 -0.0288152 0)
(-0.0216589 -0.045508 0)
(-0.020147 -0.0635392 0)
(-0.0184389 -0.0838847 0)
(-0.0173663 -0.108294 0)
(-0.0145904 -0.140276 0)
(-0.0157509 -0.180069 0)
(-0.00429761 -0.216532 0)
(-0.000195336 0.126252 0)
(-0.0013312 0.143191 0)
(-0.00334182 0.138838 0)
(-0.00419347 0.124634 0)
(-0.00512186 0.10606 0)
(-0.0059562 0.0864764 0)
(-0.00674283 0.0675476 0)
(-0.00747346 0.0498828 0)
(-0.00810149 0.0334102 0)
(-0.00860155 0.0177295 0)
(-0.00894544 0.00234624 0)
(-0.00910317 -0.0132096 0)
(-0.00905928 -0.0293242 0)
(-0.00881828 -0.0463043 0)
(-0.00853454 -0.0644506 0)
(-0.00816568 -0.0846199 0)
(-0.00925121 -0.108707 0)
(-0.00777299 -0.14096 0)
(-0.0125761 -0.182163 0)
(-0.00179085 -0.22618 0)
(0.00207525 0.124689 0)
(0.00470182 0.142978 0)
(0.00589068 0.138655 0)
(0.00708742 0.124757 0)
(0.00755553 0.106361 0)
(0.00773228 0.0869455 0)
(0.00762902 0.0681003 0)
(0.00733766 0.0504417 0)
(0.00693481 0.0339392 0)
(0.00645696 0.0182189 0)
(0.0059178 0.00279354 0)
(0.00531726 -0.0128101 0)
(0.00462813 -0.0289671 0)
(0.003848 -0.0459571 0)
(0.00277168 -0.0639686 0)
(0.00168463 -0.0836893 0)
(-0.00171188 -0.107366 0)
(-0.0014106 -0.139325 0)
(-0.010114 -0.182182 0)
(-2.72239e-05 -0.233441 0)
(0.00412918 0.119887 0)
(0.0106446 0.139803 0)
(0.0144107 0.136527 0)
(0.0178809 0.12368 0)
(0.019972 0.105684 0)
(0.0213158 0.0866878 0)
(0.0220525 0.0681461 0)
(0.0223193 0.0506967 0)
(0.0222249 0.0343579 0)
(0.0218202 0.0188035 0)
(0.0211065 0.00357389 0)
(0.020062 -0.0118007 0)
(0.018609 -0.0276924 0)
(0.0167612 -0.0443774 0)
(0.0142669 -0.0619642 0)
(0.0113991 -0.080985 0)
(0.0057186 -0.103885 0)
(0.0048847 -0.135245 0)
(-0.00813307 -0.179903 0)
(0.00267003 -0.238169 0)
(0.00638874 0.11038 0)
(0.0162267 0.132826 0)
(0.0229609 0.130908 0)
(0.0283944 0.119991 0)
(0.0323475 0.1032 0)
(0.0350197 0.085127 0)
(0.0367739 0.0673052 0)
(0.037762 0.0504062 0)
(0.0381005 0.0345281 0)
(0.0378501 0.0194176 0)
(0.0369982 0.00467167 0)
(0.0355192 -0.0101554 0)
(0.0332664 -0.0254198 0)
(0.0303015 -0.0414265 0)
(0.0261891 -0.0582475 0)
(0.021508 -0.0764399 0)
(0.0135267 -0.0981015 0)
(0.0110782 -0.128925 0)
(-0.00638945 -0.175692 0)
(0.00569084 -0.240789 0)
(0.00831761 0.0970596 0)
(0.0212083 0.123846 0)
(0.0307238 0.124299 0)
(0.0383556 0.115012 0)
(0.0444264 0.0997247 0)
(0.0487864 0.0827362 0)
(0.0518568 0.0658162 0)
(0.0538186 0.049681 0)
(0.0547831 0.0344962 0)
(0.0548208 0.0200831 0)
(0.0538994 0.00610909 0)
(0.0520122 -0.00784355 0)
(0.0489122 -0.0221019 0)
(0.0447855 -0.0370145 0)
(0.0388809 -0.0526844 0)
(0.0323443 -0.0697014 0)
(0.0218065 -0.0899342 0)
(0.0175678 -0.120565 0)
(-0.00424448 -0.169794 0)
(0.00999662 -0.241453 0)
(0.0100746 0.0801769 0)
(0.0255781 0.110082 0)
(0.0376116 0.113421 0)
(0.0476609 0.106292 0)
(0.056029 0.0932385 0)
(0.0624469 0.0780404 0)
(0.0671782 0.0626036 0)
(0.0704177 0.0477564 0)
(0.0722503 0.0337477 0)
(0.0727663 0.0204766 0)
(0.071888 0.00770316 0)
(0.0696616 -0.00495034 0)
(0.0656896 -0.0177394 0)
(0.0604088 -0.0310838 0)
(0.0525704 -0.045127 0)
(0.044179 -0.0606705 0)
(0.0307304 -0.0793195 0)
(0.0247229 -0.10993 0)
(-0.0017762 -0.162061 0)
(0.0150987 -0.240913 0)
(0.0102891 0.0605149 0)
(0.0278481 0.0961059 0)
(0.0421448 0.102446 0)
(0.0548595 0.0970686 0)
(0.0660768 0.0859254 0)
(0.075178 0.0725159 0)
(0.0821039 0.0586781 0)
(0.0870388 0.0453073 0)
(0.0900646 0.0327195 0)
(0.091324 0.0208623 0)
(0.0906706 0.00960731 0)
(0.0882818 -0.00144056 0)
(0.083503 -0.0123401 0)
(0.0772129 -0.0236691 0)
(0.0674286 -0.035583 0)
(0.0573517 -0.0493326 0)
(0.0407895 -0.0661252 0)
(0.0332621 -0.0970766 0)
(0.00147923 -0.152308 0)
(0.0218328 -0.238083 0)
(0.00890126 0.0409688 0)
(0.0271488 0.0755072 0)
(0.0438956 0.0842426 0)
(0.059633 0.0814653 0)
(0.0740253 0.0730696 0)
(0.0862684 0.0624187 0)
(0.0958687 0.0511036 0)
(0.102908 0.040046 0)
(0.107417 0.0296871 0)
(0.109697 0.0199889 0)
(0.10941 0.0109289 0)
(0.107191 0.00210866 0)
(0.101903 -0.00641903 0)
(0.0951335 -0.0152615 0)
(0.0838245 -0.0244436 0)
(0.0727805 -0.0359847 0)
(0.0533828 -0.0503157 0)
(0.0449148 -0.0818684 0)
(0.00672446 -0.140262 0)
(0.0309282 -0.229838 0)
(-0.0015832 0.0252908 0)
(0.0187698 0.0609825 0)
(0.038629 0.0689864 0)
(0.0584683 0.0672133 0)
(0.0769231 0.0607325 0)
(0.0928194 0.0524717 0)
(0.10559 0.0438331 0)
(0.115329 0.0352038 0)
(0.121895 0.0271195 0)
(0.125905 0.0196394 0)
(0.126732 0.0128476 0)
(0.125616 0.00641861 0)
(0.120883 0.00045048 0)
(0.115193 -0.00586896 0)
(0.103948 -0.0121683 0)
(0.0937982 -0.0210857 0)
(0.0729309 -0.0325523 0)
(0.0645974 -0.0642278 0)
(0.0196487 -0.123133 0)
(0.0464606 -0.206489 0)
(-0.0147021 0.0296938 0)
(-0.00109798 0.0287634 0)
(0.0267963 0.034233 0)
(0.0528346 0.0357722 0)
(0.0762978 0.0337754 0)
(0.0967617 0.0297128 0)
(0.113706 0.0250984 0)
(0.127361 0.0206194 0)
(0.137306 0.0164545 0)
(0.144496 0.0125566 0)
(0.148209 0.00914858 0)
(0.149953 0.00574358 0)
(0.148056 0.00290614 0)
(0.145015 -0.000820915 0)
(0.136818 -0.00392055 0)
(0.130033 -0.0101847 0)
(0.112085 -0.0190437 0)
(0.105558 -0.0467561 0)
(0.058946 -0.0938919 0)
(0.0781339 -0.157098 0)
(0.0395372 0.0383106 0)
(0.0457946 0.0275222 0)
(0.0702841 0.0249059 0)
(0.101007 0.0251931 0)
(0.127927 0.0243115 0)
(0.152893 0.0222891 0)
(0.174824 0.0197208 0)
(0.194319 0.0173473 0)
(0.210078 0.0150019 0)
(0.223628 0.0130543 0)
(0.233629 0.0110946 0)
(0.241995 0.00957358 0)
(0.247084 0.00783938 0)
(0.250878 0.00653674 0)
(0.251412 0.00460575 0)
(0.24885 0.00189566 0)
(0.239573 0.00164993 0)
(0.224056 -0.0104295 0)
(0.173801 -0.0134393 0)
(0.146301 -0.0650294 0)
)
;

boundaryField
{
    movingWall
    {
        type            fixedValue;
        value           uniform (1 0 0);
    }
    fixedWalls
    {
        type            noSlip;
    }
    frontAndBack
    {
        type            empty;
    }
}


// ************************************************************************* //
