/*--------------------------------*- C++ -*----------------------------------*\
| =========                 |                                                 |
| \\      /  F ield         | OpenFOAM: The Open Source CFD Toolbox           |
|  \\    /   O peration     | Version:  5.0                                   |
|   \\  /    A nd           | Web:      www.OpenFOAM.org                      |
|    \\/     M anipulation  |                                                 |
\*---------------------------------------------------------------------------*/
FoamFile
{
    version     2.0;
    format      ascii;
    class       volScalarField;
    location    "5.5";
    object      epsilon;
}
// * * * * * * * * * * * * * * * * * * * * * * * * * * * * * * * * * * * * * //

dimensions      [0 2 -3 0 0 0 0];

internalField   nonuniform List<scalar> 
400
(
1.09609e-05
2.55142e-05
0.000115447
0.000354577
0.000594903
0.000769315
0.000907293
0.00103543
0.0011496
0.00126237
0.0013704
0.00148121
0.00159434
0.00168003
0.00172096
0.0017295
0.00162312
0.00128827
0.000780152
0.000556437
5.1297e-05
0.000126814
0.000377017
0.000715677
0.000839551
0.000898209
0.000923724
0.000973083
0.00102272
0.00110331
0.00120339
0.00133286
0.0014878
0.00167176
0.00187819
0.00209459
0.00220314
0.00222242
0.00180146
0.00121544
0.000196718
0.000458864
0.000732182
0.000823962
0.000851347
0.000871274
0.000881148
0.000921838
0.000985036
0.0010653
0.00115618
0.00125875
0.00137587
0.00152206
0.00170183
0.00191935
0.00212128
0.00220935
0.0020774
0.00162353
0.000445171
0.000743965
0.000816478
0.000813709
0.000813303
0.00080474
0.000813628
0.00085375
0.000896451
0.000942661
0.000992122
0.00105703
0.00115341
0.00129142
0.0014937
0.00177141
0.00207765
0.00221557
0.00221084
0.0018843
0.000662003
0.000866439
0.000814757
0.000770121
0.000730736
0.000714756
0.000712004
0.000720868
0.000724999
0.000732722
0.000750607
0.000793032
0.000875444
0.00101846
0.00125328
0.00160778
0.00207543
0.00236421
0.00240765
0.00208534
0.000828435
0.000894644
0.000784644
0.00069197
0.000644497
0.000616854
0.000594788
0.000572346
0.000544829
0.000528138
0.00052286
0.000543611
0.00061194
0.000749961
0.00100049
0.00141755
0.00203197
0.00255161
0.00268215
0.00224581
0.00087312
0.000870165
0.000719406
0.000617457
0.000566175
0.000527323
0.000487771
0.000444234
0.000399565
0.000367876
0.000354649
0.000357967
0.000408204
0.000525594
0.000762664
0.00120421
0.0019381
0.00274329
0.00300058
0.00237372
0.000861782
0.000812279
0.000649889
0.000553376
0.000500328
0.000454159
0.000404086
0.000350906
0.000301029
0.000264093
0.000246599
0.00024352
0.000275125
0.000364646
0.000567143
0.000992981
0.00178813
0.00289175
0.00338586
0.00247617
0.000828616
0.000735518
0.000587126
0.000499999
0.000448281
0.000399343
0.000345473
0.000290506
0.000241832
0.000205626
0.000186578
0.000181278
0.000199602
0.000262228
0.000423251
0.000809192
0.00163572
0.00295985
0.00377294
0.00254936
0.000758744
0.000669582
0.00053586
0.000458688
0.000409611
0.000360988
0.000307722
0.000255107
0.000210129
0.000177093
0.000158109
0.000152081
0.000163476
0.000206697
0.000328738
0.000662727
0.00148342
0.00298325
0.00418557
0.00260114
0.000683696
0.000609761
0.000493004
0.000424765
0.000379716
0.000334273
0.000284803
0.000236627
0.000195963
0.000166228
0.0001481
0.000142097
0.000149782
0.000181601
0.000276378
0.000557388
0.0013376
0.00298344
0.00456918
0.00262563
0.000620011
0.000572196
0.000464687
0.000402793
0.0003606
0.000318175
0.000272623
0.000229032
0.00019326
0.000166392
0.000148712
0.000142001
0.000147448
0.000173686
0.000253122
0.000494524
0.00121096
0.00294774
0.00491055
0.00263454
0.000550655
0.000533492
0.000443902
0.000383535
0.000344017
0.000305829
0.000266683
0.000229338
0.000196267
0.000171233
0.000154758
0.000148871
0.000153436
0.000175381
0.000246362
0.00046581
0.00112719
0.00291057
0.00510461
0.00263109
0.000489252
0.000515767
0.000444063
0.000383629
0.000343243
0.00030608
0.000268619
0.000233442
0.000203803
0.000181473
0.000166118
0.000161583
0.000166683
0.000188607
0.000255063
0.000459232
0.00108912
0.00288201
0.00517929
0.00261028
0.000416739
0.000486605
0.000445611
0.000389881
0.000349769
0.00031272
0.000276856
0.000243814
0.000216667
0.000196412
0.000182009
0.000180154
0.00018693
0.00021236
0.000283647
0.000488517
0.00108486
0.00287338
0.00511885
0.0025916
0.000350009
0.000469401
0.000454065
0.000412619
0.000372791
0.000334822
0.000298685
0.000266008
0.000239068
0.000219121
0.000206592
0.000207936
0.000219148
0.00025436
0.000343948
0.000581039
0.00118717
0.00294817
0.00481975
0.00250407
0.000269497
0.000410514
0.000454919
0.000447559
0.000423466
0.00038656
0.000348667
0.000314204
0.00028666
0.000267346
0.000262397
0.000269932
0.000295284
0.000359762
0.000502618
0.000844315
0.00152774
0.00322987
0.00432508
0.00239293
0.000192064
0.000378581
0.000504905
0.000554242
0.000553254
0.000532166
0.000493488
0.000459783
0.000438839
0.000441175
0.000460503
0.00050966
0.00060852
0.000782661
0.00109103
0.00179272
0.00261533
0.00394628
0.00406761
0.00221241
0.000235095
0.000409517
0.000724241
0.000887474
0.000967696
0.00100387
0.00103452
0.00107767
0.00116493
0.00130384
0.00151292
0.00181378
0.00221714
0.00284133
0.00358883
0.00469634
0.00518457
0.00488904
0.00407758
0.00196745
0.000173278
0.000277763
0.000514536
0.000742839
0.00092915
0.00106437
0.00115007
0.00121768
0.00126023
0.00131113
0.00134372
0.00140311
0.00144427
0.00152969
0.00158455
0.00169487
0.00178573
0.00188271
0.0018633
0.00166953
)
;

boundaryField
{
    movingWall
    {
        Cmu             0.09;
        kappa           0.41;
        E               9.8;
        type            epsilonWallFunction;
        value           nonuniform List<scalar> 
20
(
0.000173278
0.000277763
0.000514536
0.000742839
0.00092915
0.00106437
0.00115007
0.00121768
0.00126023
0.00131113
0.00134372
0.00140311
0.00144427
0.00152969
0.00158455
0.00169487
0.00178573
0.00188271
0.0018633
0.00166953
)
;
    }
    fixedWalls
    {
        Cmu             0.09;
        kappa           0.41;
        E               9.8;
        type            epsilonWallFunction;
        value           nonuniform List<scalar> 
60
(
1.09609e-05
5.1297e-05
0.000196718
0.000445171
0.000662003
0.000828435
0.00087312
0.000861782
0.000828616
0.000758744
0.000683696
0.000620011
0.000550655
0.000489252
0.000416739
0.000350009
0.000269497
0.000192064
0.000235095
0.000173278
0.000556437
0.00121544
0.00162353
0.0018843
0.00208534
0.00224581
0.00237372
0.00247617
0.00254936
0.00260114
0.00262563
0.00263454
0.00263109
0.00261028
0.0025916
0.00250407
0.00239293
0.00221241
0.00196745
0.00166953
1.09609e-05
2.55142e-05
0.000115447
0.000354577
0.000594903
0.000769315
0.000907293
0.00103543
0.0011496
0.00126237
0.0013704
0.00148121
0.00159434
0.00168003
0.00172096
0.0017295
0.00162312
0.00128827
0.000780152
0.000556437
)
;
    }
    frontAndBack
    {
        type            empty;
    }
}


// ************************************************************************* //
