/*--------------------------------*- C++ -*----------------------------------*\
| =========                 |                                                 |
| \\      /  F ield         | OpenFOAM: The Open Source CFD Toolbox           |
|  \\    /   O peration     | Version:  5.0                                   |
|   \\  /    A nd           | Web:      www.OpenFOAM.org                      |
|    \\/     M anipulation  |                                                 |
\*---------------------------------------------------------------------------*/
FoamFile
{
    version     2.0;
    format      ascii;
    class       volScalarField;
    location    "5.5";
    object      k;
}
// * * * * * * * * * * * * * * * * * * * * * * * * * * * * * * * * * * * * * //

dimensions      [0 2 -2 0 0 0 0];

internalField   nonuniform List<scalar> 
400
(
3.42912e-06
7.98365e-06
3.61698e-05
0.000111051
0.000186214
0.000240735
0.000283867
0.000323923
0.00035961
0.00039486
0.000428627
0.00046326
0.000498617
0.000525374
0.00053815
0.000540808
0.000507512
0.000402818
0.000243969
0.000174018
1.6045e-05
5.72186e-05
0.000133101
0.000274722
0.000360451
0.000444437
0.000500285
0.000566381
0.00062546
0.000688678
0.000750931
0.000814618
0.000874373
0.000934106
0.000989529
0.00101767
0.00102602
0.000931785
0.000620379
0.000379976
6.15279e-05
0.0002076
0.000349585
0.000458853
0.000533526
0.000599118
0.000651061
0.000707658
0.000759719
0.000813246
0.000861592
0.000908878
0.000953635
0.00100398
0.00105543
0.00109376
0.0011064
0.00106309
0.000781166
0.000507434
0.000139185
0.000386899
0.000484553
0.000556218
0.000608772
0.000654737
0.000693634
0.000737012
0.000776676
0.000814935
0.000851031
0.000885945
0.000927413
0.000981301
0.001049
0.00111995
0.00115341
0.0011556
0.000926891
0.000588877
0.000207057
0.000499478
0.000560443
0.000589064
0.000621246
0.000653345
0.000686124
0.000716668
0.000737215
0.000749708
0.000760044
0.000782903
0.000825775
0.00089358
0.000994678
0.00112467
0.00121746
0.00123962
0.00106059
0.000651664
0.000259085
0.00055607
0.000578532
0.000587979
0.000615346
0.000639588
0.000652848
0.000655252
0.000645913
0.000638427
0.000636811
0.000652182
0.000693119
0.000769966
0.000896257
0.00107771
0.00126385
0.00133579
0.00120429
0.000701775
0.000273047
0.000554802
0.000574081
0.000580292
0.000598143
0.000604231
0.000596747
0.000578987
0.000554823
0.000536944
0.000530007
0.000536817
0.000572728
0.000648579
0.000784273
0.000998657
0.00127889
0.00142706
0.00134379
0.000741718
0.000269497
0.000544024
0.000560981
0.000562724
0.000568705
0.000564598
0.000545111
0.000516325
0.000485523
0.000463018
0.000453608
0.000455534
0.000484285
0.000551382
0.000682287
0.00091223
0.00125547
0.0015078
0.00149245
0.000773704
0.000259119
0.000518715
0.000536796
0.000539098
0.000540919
0.000530692
0.000505268
0.000472322
0.000440254
0.000416571
0.000405763
0.000405301
0.000426741
0.000481879
0.000597513
0.000820602
0.00119436
0.00157177
0.00162433
0.000796547
0.000237256
0.000492899
0.000512862
0.000516614
0.000516978
0.000504121
0.000477381
0.000444567
0.000413944
0.000391008
0.000378889
0.000377287
0.000392785
0.00043737
0.000538048
0.000746814
0.00112872
0.00160484
0.00175657
0.000812693
0.000213783
0.000457853
0.000486375
0.000493944
0.000495455
0.000483921
0.000458735
0.000428271
0.000400149
0.000378801
0.000366342
0.000364671
0.000376514
0.000413339
0.000499387
0.000691502
0.00107059
0.00161816
0.00187129
0.000820328
0.000193859
0.000426921
0.000465906
0.000475999
0.000477482
0.000468419
0.000446474
0.000419216
0.00039392
0.000374415
0.000362513
0.00036139
0.000371327
0.000403833
0.000480683
0.000653787
0.00101954
0.00162139
0.00197083
0.000823102
0.000172166
0.000386679
0.000440894
0.000456428
0.00046077
0.000454831
0.000438026
0.000414265
0.000392331
0.000375011
0.000364049
0.000363903
0.000372819
0.000402662
0.000474755
0.00063606
0.000975373
0.00161531
0.00202156
0.000821987
0.000152958
0.000359735
0.000425976
0.000446443
0.000449478
0.000444575
0.000431409
0.000412433
0.000393629
0.000378225
0.000369314
0.0003706
0.000380854
0.000411048
0.000479905
0.00063181
0.000951083
0.00159853
0.00203947
0.000815489
0.00013028
0.000316194
0.000400219
0.000432346
0.000443557
0.000441143
0.000432179
0.000415122
0.000398457
0.000384996
0.000378878
0.000381667
0.000394273
0.000427185
0.00049747
0.00064651
0.000943664
0.00157695
0.00199423
0.000809607
0.000109406
0.000290238
0.000386971
0.000431199
0.000448891
0.000447581
0.000440428
0.000425473
0.000410375
0.000397903
0.000394486
0.000398967
0.000414765
0.000452848
0.000529296
0.000690339
0.000960723
0.00156648
0.00189365
0.000782256
8.42361e-05
0.000231092
0.000353452
0.000431998
0.000465262
0.000468595
0.000463716
0.000451488
0.000437575
0.000426751
0.000427387
0.000435623
0.000458476
0.000511045
0.000602082
0.000799318
0.00105443
0.00157873
0.0017196
0.000747487
6.00219e-05
0.000218251
0.000368759
0.000464837
0.000520614
0.000533957
0.000532085
0.000525436
0.000518204
0.000519766
0.000531054
0.000559144
0.000611225
0.000706338
0.000840304
0.00112309
0.00138645
0.00168212
0.00154102
0.000691068
7.34579e-05
0.000248033
0.000443182
0.000560996
0.00064564
0.000692644
0.0007276
0.000761634
0.000809807
0.0008697
0.000957271
0.00106851
0.0012178
0.00142055
0.00165142
0.00196392
0.00200745
0.00185449
0.00145001
0.000614486
5.41367e-05
8.67804e-05
0.000160766
0.000232084
0.000290299
0.000332523
0.000359272
0.000380361
0.000393622
0.000409486
0.000419642
0.000438157
0.000450997
0.000477652
0.000494778
0.00052923
0.000557607
0.000587928
0.000581877
0.000521387
)
;

boundaryField
{
    movingWall
    {
        type            kqRWallFunction;
        value           nonuniform List<scalar> 
20
(
5.41367e-05
8.67804e-05
0.000160766
0.000232084
0.000290299
0.000332523
0.000359272
0.000380361
0.000393622
0.000409486
0.000419642
0.000438157
0.000450997
0.000477652
0.000494778
0.00052923
0.000557607
0.000587928
0.000581877
0.000521387
)
;
    }
    fixedWalls
    {
        type            kqRWallFunction;
        value           nonuniform List<scalar> 
60
(
3.42912e-06
1.6045e-05
6.15279e-05
0.000139185
0.000207057
0.000259085
0.000273047
0.000269497
0.000259119
0.000237256
0.000213783
0.000193859
0.000172166
0.000152958
0.00013028
0.000109406
8.42361e-05
6.00219e-05
7.34579e-05
5.41367e-05
0.000174018
0.000379976
0.000507434
0.000588877
0.000651664
0.000701775
0.000741718
0.000773704
0.000796547
0.000812693
0.000820328
0.000823102
0.000821987
0.000815489
0.000809607
0.000782256
0.000747487
0.000691068
0.000614486
0.000521387
3.42912e-06
7.98365e-06
3.61698e-05
0.000111051
0.000186214
0.000240735
0.000283867
0.000323923
0.00035961
0.00039486
0.000428627
0.00046326
0.000498617
0.000525374
0.00053815
0.000540808
0.000507512
0.000402818
0.000243969
0.000174018
)
;
    }
    frontAndBack
    {
        type            empty;
    }
}


// ************************************************************************* //
