/*--------------------------------*- C++ -*----------------------------------*\
| =========                 |                                                 |
| \\      /  F ield         | OpenFOAM: The Open Source CFD Toolbox           |
|  \\    /   O peration     | Version:  5.0                                   |
|   \\  /    A nd           | Web:      www.OpenFOAM.org                      |
|    \\/     M anipulation  |                                                 |
\*---------------------------------------------------------------------------*/
FoamFile
{
    version     2.0;
    format      ascii;
    class       volScalarField;
    location    "5.5";
    object      nut;
}
// * * * * * * * * * * * * * * * * * * * * * * * * * * * * * * * * * * * * * //

dimensions      [0 2 -1 0 0 0 0];

internalField   nonuniform List<scalar> 
400
(
9.65524e-08
2.24835e-07
1.01988e-06
3.13024e-06
5.24591e-06
6.77981e-06
7.99327e-06
9.12025e-06
1.01242e-05
1.11159e-05
1.20657e-05
1.304e-05
1.40345e-05
1.47864e-05
1.51454e-05
1.52198e-05
1.42818e-05
1.13358e-05
6.86643e-06
4.89798e-06
4.51682e-07
2.32353e-06
4.22903e-06
9.49098e-06
1.39279e-05
1.97918e-05
2.43857e-05
2.96694e-05
3.44257e-05
3.8688e-05
4.21732e-05
4.48092e-05
4.62479e-05
4.69744e-05
4.69203e-05
4.44997e-05
4.30046e-05
3.51598e-05
1.92279e-05
1.0691e-05
1.73198e-06
8.45307e-06
1.5022e-05
2.29976e-05
3.00917e-05
3.70776e-05
4.3295e-05
4.88916e-05
5.27347e-05
5.58745e-05
5.77858e-05
5.9063e-05
5.94882e-05
5.96021e-05
5.89093e-05
5.60955e-05
5.19363e-05
4.60378e-05
2.64368e-05
1.42738e-05
3.9165e-06
1.81086e-05
2.5881e-05
3.42187e-05
4.10109e-05
4.79425e-05
5.32203e-05
5.72613e-05
6.05614e-05
6.34063e-05
6.57004e-05
6.68295e-05
6.71125e-05
6.71089e-05
6.63032e-05
6.3727e-05
5.76282e-05
5.42469e-05
3.49738e-05
1.65631e-05
5.8286e-06
2.59141e-05
3.46958e-05
4.05516e-05
4.75345e-05
5.37488e-05
5.95067e-05
6.41242e-05
6.74674e-05
6.90379e-05
6.92641e-05
6.95613e-05
7.01031e-05
7.05613e-05
7.10492e-05
7.0806e-05
6.42754e-05
5.84972e-05
4.20475e-05
1.83279e-05
7.29236e-06
3.11065e-05
3.83906e-05
4.49654e-05
5.28763e-05
5.96843e-05
6.44917e-05
6.7515e-05
6.89176e-05
6.94573e-05
6.98038e-05
7.04193e-05
7.0656e-05
7.11454e-05
7.22592e-05
7.37413e-05
7.07484e-05
6.29371e-05
4.86653e-05
1.97363e-05
7.68498e-06
3.18359e-05
4.12301e-05
4.90828e-05
5.68723e-05
6.23119e-05
6.57062e-05
6.79154e-05
6.93368e-05
7.05341e-05
7.12864e-05
7.24524e-05
7.23208e-05
7.20308e-05
7.25844e-05
7.45373e-05
7.59512e-05
6.68122e-05
5.41628e-05
2.08589e-05
7.58497e-06
3.27924e-05
4.35813e-05
5.15006e-05
5.81785e-05
6.31703e-05
6.6182e-05
6.83751e-05
7.0478e-05
7.30603e-05
7.50954e-05
7.66921e-05
7.67211e-05
7.50372e-05
7.38726e-05
7.54241e-05
7.93329e-05
7.07566e-05
5.92073e-05
2.17576e-05
7.29269e-06
3.29236e-05
4.41703e-05
5.23128e-05
5.87431e-05
6.34718e-05
6.65077e-05
6.91136e-05
7.21333e-05
7.59527e-05
7.94197e-05
8.15557e-05
8.2112e-05
7.96965e-05
7.59171e-05
7.48957e-05
7.84873e-05
7.51189e-05
6.29378e-05
2.23993e-05
6.67701e-06
3.26554e-05
4.41767e-05
5.2367e-05
5.8724e-05
6.33607e-05
6.66522e-05
6.9726e-05
7.33906e-05
7.76982e-05
8.17163e-05
8.42389e-05
8.49373e-05
8.32924e-05
7.92564e-05
7.57413e-05
7.72942e-05
7.76991e-05
6.63469e-05
2.28524e-05
6.01626e-06
3.09411e-05
4.31853e-05
5.16951e-05
5.81826e-05
6.30508e-05
6.64999e-05
6.97615e-05
7.3538e-05
7.76891e-05
8.15572e-05
8.42288e-05
8.51815e-05
8.46715e-05
8.12107e-05
7.72097e-05
7.71189e-05
7.89898e-05
6.89738e-05
2.30666e-05
5.45528e-06
2.86677e-05
4.20416e-05
5.06258e-05
5.69025e-05
6.20647e-05
6.58073e-05
6.90594e-05
7.22631e-05
7.58257e-05
7.95327e-05
8.27755e-05
8.41621e-05
8.45051e-05
8.21543e-05
7.77908e-05
7.72532e-05
8.02655e-05
7.11884e-05
2.31443e-05
4.84462e-06
2.52241e-05
3.94116e-05
4.88857e-05
5.55432e-05
6.08786e-05
6.47512e-05
6.73477e-05
7.05829e-05
7.39168e-05
7.7074e-05
8.00575e-05
8.15289e-05
8.32032e-05
8.23394e-05
7.81682e-05
7.596e-05
8.06815e-05
7.20533e-05
2.3112e-05
4.3038e-06
2.25816e-05
3.67762e-05
4.67589e-05
5.29734e-05
5.81162e-05
6.23569e-05
6.55798e-05
6.84236e-05
7.09465e-05
7.38953e-05
7.64992e-05
7.83191e-05
8.06249e-05
8.12654e-05
7.82319e-05
7.47488e-05
7.97968e-05
7.22783e-05
2.29293e-05
3.66553e-06
1.84915e-05
3.23505e-05
4.31492e-05
5.06246e-05
5.60073e-05
6.07177e-05
6.36114e-05
6.59498e-05
6.79182e-05
7.09821e-05
7.27727e-05
7.48441e-05
7.73395e-05
7.85232e-05
7.7004e-05
7.38759e-05
7.7891e-05
6.99231e-05
2.27626e-05
3.07781e-06
1.61513e-05
2.96812e-05
4.05554e-05
4.86474e-05
5.38482e-05
5.84492e-05
6.12479e-05
6.3399e-05
6.50297e-05
6.77941e-05
6.88949e-05
7.06494e-05
7.25604e-05
7.33075e-05
7.38179e-05
6.99724e-05
7.49095e-05
6.69603e-05
2.19935e-05
2.36966e-06
1.1708e-05
2.47155e-05
3.7528e-05
4.60064e-05
5.11236e-05
5.55055e-05
5.8388e-05
6.01147e-05
6.13081e-05
6.26507e-05
6.32717e-05
6.40671e-05
6.53349e-05
6.49106e-05
6.81048e-05
6.54974e-05
6.945e-05
6.1532e-05
2.10145e-05
1.68816e-06
1.13239e-05
2.42392e-05
3.50869e-05
4.4091e-05
4.82178e-05
5.16332e-05
5.40418e-05
5.5073e-05
5.51122e-05
5.51172e-05
5.52089e-05
5.52547e-05
5.73713e-05
5.82477e-05
6.33222e-05
6.61495e-05
6.45311e-05
5.25436e-05
1.94276e-05
2.06575e-06
1.35204e-05
2.44075e-05
3.19159e-05
3.8769e-05
4.30114e-05
4.60562e-05
4.8445e-05
5.06647e-05
5.22104e-05
5.45125e-05
5.66523e-05
6.02009e-05
6.39197e-05
6.83918e-05
7.39149e-05
6.99551e-05
6.33091e-05
4.64066e-05
1.72728e-05
1.52223e-06
2.44012e-06
4.52081e-06
6.52588e-06
8.16298e-06
9.34966e-06
1.0101e-05
1.0693e-05
1.1065e-05
1.151e-05
1.17948e-05
1.23143e-05
1.26748e-05
1.34234e-05
1.39046e-05
1.48729e-05
1.56705e-05
1.65237e-05
1.63539e-05
1.46544e-05
)
;

boundaryField
{
    movingWall
    {
        type            nutkWallFunction;
        Cmu             0.09;
        kappa           0.41;
        E               9.8;
        value           uniform 0;
    }
    fixedWalls
    {
        type            nutkWallFunction;
        Cmu             0.09;
        kappa           0.41;
        E               9.8;
        value           uniform 0;
    }
    frontAndBack
    {
        type            empty;
    }
}


// ************************************************************************* //
