/*--------------------------------*- C++ -*----------------------------------*\
| =========                 |                                                 |
| \\      /  F ield         | OpenFOAM: The Open Source CFD Toolbox           |
|  \\    /   O peration     | Version:  5.0                                   |
|   \\  /    A nd           | Web:      www.OpenFOAM.org                      |
|    \\/     M anipulation  |                                                 |
\*---------------------------------------------------------------------------*/
FoamFile
{
    version     2.0;
    format      ascii;
    class       volScalarField;
    location    "5.5";
    object      p;
}
// * * * * * * * * * * * * * * * * * * * * * * * * * * * * * * * * * * * * * //

dimensions      [0 2 -2 0 0 0 0];

internalField   nonuniform List<scalar> 
400
(
3.96558e-08
-6.58286e-05
-0.000151036
-0.000158259
-0.000537684
-0.00147422
-0.00274759
-0.00405128
-0.00515361
-0.00591404
-0.00624033
-0.00604368
-0.00529273
-0.00396729
-0.00206261
0.000314687
0.00289907
0.00517352
0.00656575
0.00684592
2.31705e-05
-3.09322e-05
-0.000128322
-0.000453436
-0.00113036
-0.00219789
-0.00346183
-0.00470412
-0.00575335
-0.00649488
-0.00683424
-0.00671377
-0.00609786
-0.00492386
-0.0031926
-0.000960135
0.00156077
0.00394334
0.00562765
0.00629639
0.000213595
-6.18106e-06
-0.000395197
-0.00107415
-0.0020883
-0.00332156
-0.00460624
-0.00580324
-0.0068113
-0.0075141
-0.00783308
-0.00773554
-0.00720316
-0.00621294
-0.00474539
-0.00282217
-0.000556227
0.00178539
0.00375233
0.00474087
0.000165511
-0.000226308
-0.000956517
-0.00201478
-0.00330923
-0.00467428
-0.00598132
-0.00712423
-0.00801767
-0.00861106
-0.00888291
-0.00881378
-0.00837734
-0.00756239
-0.00635461
-0.00475805
-0.00282369
-0.000699053
0.00128287
0.00233796
-0.000322084
-0.000864309
-0.00185161
-0.00316267
-0.00459908
-0.00600007
-0.00726054
-0.00830446
-0.00908971
-0.00959921
-0.00982884
-0.0097729
-0.00942144
-0.00876745
-0.00779972
-0.00651439
-0.00493057
-0.00311874
-0.00130424
-0.000311015
-0.00124761
-0.00187503
-0.00298228
-0.00436454
-0.0058116
-0.00716583
-0.00833771
-0.00927756
-0.00996948
-0.0104107
-0.0106054
-0.010558
-0.0102719
-0.0097475
-0.00897921
-0.00796022
-0.00669463
-0.00521969
-0.00374515
-0.00280601
-0.00240279
-0.00305046
-0.00415034
-0.00548277
-0.00685967
-0.0081217
-0.00919147
-0.0100346
-0.0106468
-0.0110327
-0.0112017
-0.0111633
-0.010927
-0.0105002
-0.00988436
-0.00907479
-0.00807214
-0.00689856
-0.00576212
-0.00492899
-0.0035299
-0.00414593
-0.00517159
-0.00641196
-0.00768842
-0.00884689
-0.00982023
-0.0105817
-0.0111312
-0.0114768
-0.0116293
-0.0116
-0.0114006
-0.011043
-0.0105359
-0.0098799
-0.00907817
-0.00814882
-0.00729761
-0.00656396
-0.00443723
-0.0050101
-0.00593867
-0.00708627
-0.00826454
-0.00933174
-0.0102282
-0.0109297
-0.0114363
-0.0117562
-0.0118998
-0.0118778
-0.011702
-0.0113874
-0.0109493
-0.0103966
-0.00974111
-0.00898313
-0.00833993
-0.00769909
-0.00504975
-0.00555147
-0.00639706
-0.00747366
-0.00857257
-0.00957419
-0.0104209
-0.0110871
-0.0115707
-0.0118779
-0.0120178
-0.0119996
-0.0118349
-0.0115399
-0.0111357
-0.0106402
-0.0100886
-0.00942278
-0.00894535
-0.00833669
-0.00532873
-0.00576455
-0.00654517
-0.00756562
-0.0086107
-0.00957659
-0.0104022
-0.0110577
-0.0115369
-0.0118431
-0.0119834
-0.0119657
-0.0118007
-0.0115059
-0.011106
-0.0106245
-0.0101435
-0.0094779
-0.00916223
-0.00849294
-0.00526782
-0.00566319
-0.00639468
-0.00737016
-0.0083895
-0.0093459
-0.0101756
-0.0108429
-0.0113351
-0.0116517
-0.0117969
-0.0117768
-0.0116019
-0.0112901
-0.0108703
-0.010379
-0.00989581
-0.00918584
-0.00905298
-0.00816515
-0.00493458
-0.00530519
-0.00599421
-0.00691699
-0.00792574
-0.00889188
-0.00974645
-0.0104456
-0.0109679
-0.0113065
-0.0114621
-0.0114387
-0.0112462
-0.0109034
-0.0104432
-0.00990734
-0.00937319
-0.008609
-0.0086173
-0.00736978
-0.00442608
-0.00475679
-0.00538734
-0.00624701
-0.00723822
-0.00822519
-0.00912264
-0.00987288
-0.0104425
-0.0108164
-0.0109903
-0.0109656
-0.0107506
-0.0103657
-0.00984709
-0.00923603
-0.00862077
-0.00779678
-0.00782175
-0.00615325
-0.00386806
-0.00412147
-0.00464058
-0.00540892
-0.00636451
-0.00737434
-0.00832773
-0.00914575
-0.00977947
-0.010203
-0.0104057
-0.0103861
-0.0101489
-0.00971441
-0.00912278
-0.00841018
-0.00768107
-0.0067396
-0.00665677
-0.00455719
-0.00337804
-0.00346695
-0.00379924
-0.00443642
-0.00534233
-0.00637583
-0.00739574
-0.00829697
-0.00901205
-0.00950148
-0.00974691
-0.00974118
-0.0094952
-0.00901275
-0.00833748
-0.00749174
-0.00659154
-0.00543224
-0.00509405
-0.00237915
-0.00305634
-0.00287565
-0.00293838
-0.00340763
-0.00425263
-0.00530906
-0.00640187
-0.00739779
-0.00820883
-0.00878085
-0.00908764
-0.00911606
-0.00887228
-0.00834721
-0.00757738
-0.00655108
-0.00537083
-0.0038169
-0.00286617
0.00122355
-0.00289295
-0.00231662
-0.00208328
-0.00238211
-0.00316851
-0.00424874
-0.00541774
-0.00651809
-0.00743985
-0.00811242
-0.00849862
-0.00857433
-0.00833838
-0.00777678
-0.00691158
-0.00565186
-0.00405368
-0.00174321
0.000665207
0.00809478
-0.00288138
-0.00183092
-0.00138644
-0.00155955
-0.00229858
-0.00340173
-0.00464141
-0.00583856
-0.00686205
-0.0076326
-0.0081012
-0.00824694
-0.00804888
-0.00748221
-0.00648031
-0.00495264
-0.00278155
0.00100292
0.00663174
0.0194865
-0.00351159
-0.000603205
-5.77731e-05
-0.000419197
-0.00122492
-0.00237713
-0.00370505
-0.00500629
-0.00613161
-0.00698459
-0.0075145
-0.00768706
-0.00747984
-0.00685866
-0.00577608
-0.00404351
-0.000883521
0.00532802
0.0165288
0.0340507
)
;

boundaryField
{
    movingWall
    {
        type            zeroGradient;
    }
    fixedWalls
    {
        type            zeroGradient;
    }
    frontAndBack
    {
        type            empty;
    }
}


// ************************************************************************* //
