/*--------------------------------*- C++ -*----------------------------------*\
| =========                 |                                                 |
| \\      /  F ield         | OpenFOAM: The Open Source CFD Toolbox           |
|  \\    /   O peration     | Version:  5.0                                   |
|   \\  /    A nd           | Web:      www.OpenFOAM.org                      |
|    \\/     M anipulation  |                                                 |
\*---------------------------------------------------------------------------*/
FoamFile
{
    version     2.0;
    format      ascii;
    class       surfaceScalarField;
    location    "5.5";
    object      phi;
}
// * * * * * * * * * * * * * * * * * * * * * * * * * * * * * * * * * * * * * //

dimensions      [0 3 -1 0 0 0 0];

internalField   nonuniform List<scalar> 
760
(
1.86578e-07
-1.86582e-07
7.03977e-08
1.1618e-07
-4.52717e-07
5.23114e-07
-1.48734e-06
1.03462e-06
-2.79766e-06
1.31033e-06
-4.00671e-06
1.20904e-06
-5.04629e-06
1.03959e-06
-5.88281e-06
8.36513e-07
-6.51234e-06
6.29529e-07
-6.94241e-06
4.30076e-07
-7.1887e-06
2.46291e-07
-7.24979e-06
6.1089e-08
-7.10855e-06
-1.41244e-07
-6.76661e-06
-3.41934e-07
-6.1667e-06
-5.99914e-07
-5.27701e-06
-8.89688e-07
-4.05396e-06
-1.22305e-06
-2.53862e-06
-1.51534e-06
-9.52223e-07
-1.5864e-06
-9.52223e-07
-2.01367e-07
1.4785e-08
-9.17985e-07
8.32798e-07
-2.09516e-06
1.70029e-06
-3.3418e-06
2.28126e-06
-4.32622e-06
2.29475e-06
-5.20863e-06
2.09145e-06
-5.94138e-06
1.77233e-06
-6.52513e-06
1.42027e-06
-6.96939e-06
1.07379e-06
-7.27663e-06
7.37312e-07
-7.42952e-06
3.99189e-07
-7.41435e-06
4.5916e-08
-7.25772e-06
-2.97878e-07
-6.92083e-06
-6.78819e-07
-6.39281e-06
-1.12794e-06
-5.63039e-06
-1.6521e-06
-4.59465e-06
-2.25879e-06
-3.23221e-06
-2.87778e-06
-1.58087e-06
-3.23774e-06
-2.5331e-06
-7.59978e-07
7.74763e-07
-1.87424e-06
1.94706e-06
-2.98373e-06
2.80979e-06
-3.87838e-06
3.17591e-06
-4.62483e-06
3.0412e-06
-5.24576e-06
2.71238e-06
-5.74359e-06
2.27016e-06
-6.11457e-06
1.79124e-06
-6.35909e-06
1.31831e-06
-6.48463e-06
8.62853e-07
-6.50851e-06
4.23069e-07
-6.4392e-06
-2.33884e-08
-6.27265e-06
-4.64432e-07
-5.98808e-06
-9.63391e-07
-5.56853e-06
-1.54749e-06
-4.98055e-06
-2.24008e-06
-4.18623e-06
-3.05311e-06
-3.12453e-06
-3.93948e-06
-1.72502e-06
-4.63725e-06
-4.25812e-06
-1.02388e-06
1.79864e-06
-2.11629e-06
3.03947e-06
-3.03263e-06
3.72612e-06
-3.71537e-06
3.85865e-06
-4.25301e-06
3.57883e-06
-4.66274e-06
3.12212e-06
-4.95672e-06
2.56414e-06
-5.15434e-06
1.98886e-06
-5.27014e-06
1.43411e-06
-5.31552e-06
9.0824e-07
-5.29531e-06
4.02857e-07
-5.2176e-06
-1.01096e-07
-5.06281e-06
-6.19228e-07
-4.83148e-06
-1.19472e-06
-4.51222e-06
-1.86674e-06
-4.07786e-06
-2.67444e-06
-3.4889e-06
-3.64207e-06
-2.68253e-06
-4.74585e-06
-1.53853e-06
-5.78126e-06
-5.79664e-06
-1.01467e-06
2.81331e-06
-1.95578e-06
3.98058e-06
-2.67971e-06
4.45006e-06
-3.20399e-06
4.38293e-06
-3.58812e-06
3.96296e-06
-3.85316e-06
3.38715e-06
-4.02716e-06
2.73815e-06
-4.13255e-06
2.09425e-06
-4.18074e-06
1.4823e-06
-4.17914e-06
9.06642e-07
-4.13171e-06
3.55419e-07
-4.04237e-06
-1.90435e-07
-3.90559e-06
-7.56008e-07
-3.72246e-06
-1.37785e-06
-3.48759e-06
-2.10161e-06
-3.18215e-06
-2.97988e-06
-2.76557e-06
-4.05865e-06
-2.16851e-06
-5.34291e-06
-1.28802e-06
-6.66174e-06
-7.08467e-06
-8.57961e-07
3.67127e-06
-1.61145e-06
4.73407e-06
-2.16703e-06
5.00564e-06
-2.56394e-06
4.77984e-06
-2.83767e-06
4.2367e-06
-3.0133e-06
3.56278e-06
-3.11997e-06
2.84482e-06
-3.17559e-06
2.14987e-06
-3.19015e-06
1.49685e-06
-3.16879e-06
8.85283e-07
-3.11451e-06
3.01145e-07
-3.02901e-06
-2.75936e-07
-2.91284e-06
-8.72182e-07
-2.76861e-06
-1.52208e-06
-2.59677e-06
-2.27345e-06
-2.38903e-06
-3.18762e-06
-2.12013e-06
-4.32756e-06
-1.71917e-06
-5.74387e-06
-1.03981e-06
-7.3411e-06
-8.12447e-06
-6.59718e-07
4.33099e-06
-1.21051e-06
5.28486e-06
-1.61977e-06
5.41489e-06
-1.90586e-06
5.06594e-06
-2.09771e-06
4.42854e-06
-2.21683e-06
3.68189e-06
-2.2863e-06
2.9143e-06
-2.31922e-06
2.18279e-06
-2.32357e-06
1.5012e-06
-2.30288e-06
8.64596e-07
-2.25814e-06
2.564e-07
-2.18909e-06
-3.44989e-07
-2.09682e-06
-9.64454e-07
-1.9859e-06
-1.63299e-06
-1.86245e-06
-2.39691e-06
-1.7257e-06
-3.32437e-06
-1.55821e-06
-4.49504e-06
-1.30062e-06
-6.00146e-06
-8.54405e-07
-7.78732e-06
-8.97888e-06
-4.31701e-07
4.76269e-06
-8.09121e-07
5.66228e-06
-1.08646e-06
5.69223e-06
-1.27794e-06
5.25742e-06
-1.40609e-06
4.5567e-06
-1.48649e-06
3.76229e-06
-1.53514e-06
2.96295e-06
-1.56049e-06
2.20814e-06
-1.56758e-06
1.50829e-06
-1.55788e-06
8.54894e-07
-1.53046e-06
2.28982e-07
-1.48396e-06
-3.91491e-07
-1.41895e-06
-1.02947e-06
-1.34067e-06
-1.71126e-06
-1.25983e-06
-2.47774e-06
-1.18408e-06
-3.40013e-06
-1.10139e-06
-4.57773e-06
-9.57846e-07
-6.14501e-06
-6.6478e-07
-8.08038e-06
-9.64366e-06
-2.2997e-07
4.99266e-06
-4.35848e-07
5.86816e-06
-5.87722e-07
5.84411e-06
-6.95118e-07
5.36481e-06
-7.68807e-07
4.63038e-06
-8.18348e-07
3.81183e-06
-8.52674e-07
2.99727e-06
-8.75556e-07
2.23102e-06
-8.88895e-07
1.52163e-06
-8.92263e-07
8.58262e-07
-8.83946e-07
2.20665e-07
-8.6235e-07
-4.13087e-07
-8.28003e-07
-1.06381e-06
-7.86059e-07
-1.7532e-06
-7.48626e-07
-2.51518e-06
-7.29172e-07
-3.41958e-06
-7.22136e-07
-4.58477e-06
-6.78724e-07
-6.18842e-06
-5.34218e-07
-8.22489e-06
-1.01779e-05
-2.26068e-08
5.01527e-06
-9.08375e-08
5.93639e-06
-1.31072e-07
5.88434e-06
-1.58719e-07
5.39246e-06
-1.78522e-07
4.65019e-06
-1.96985e-07
3.83029e-06
-2.16091e-07
3.01638e-06
-2.35147e-07
2.25008e-06
-2.52859e-07
1.53934e-06
-2.6759e-07
8.72992e-07
-2.77735e-07
2.30809e-07
-2.82278e-07
-4.08544e-07
-2.82056e-07
-1.06404e-06
-2.82138e-07
-1.75312e-06
-2.94434e-07
-2.50288e-06
-3.31991e-07
-3.38202e-06
-4.04032e-07
-4.51273e-06
-4.51181e-07
-6.14127e-06
-4.11886e-07
-8.26418e-06
-1.05898e-05
1.59564e-07
4.8557e-06
2.42766e-07
5.85319e-06
3.16976e-07
5.81013e-06
3.57978e-07
5.35146e-06
3.8588e-07
4.62229e-06
3.98417e-07
3.81775e-06
3.9747e-07
3.01733e-06
3.86446e-07
2.2611e-06
3.68251e-07
1.55754e-06
3.44837e-07
8.96407e-07
3.17071e-07
2.58576e-07
2.8501e-07
-3.76483e-07
2.4745e-07
-1.02648e-06
2.00092e-07
-1.70576e-06
1.31976e-07
-2.43476e-06
2.12066e-08
-3.27125e-06
-1.13842e-07
-4.37768e-06
-2.59526e-07
-5.99559e-06
-3.29534e-07
-8.19418e-06
-1.09193e-05
3.28768e-07
4.52694e-06
5.46289e-07
5.63567e-06
7.22998e-07
5.63342e-06
8.44486e-07
5.22997e-06
9.28536e-07
4.53824e-06
9.80269e-07
3.76602e-06
1.00516e-06
2.99244e-06
1.00873e-06
2.25753e-06
9.95021e-07
1.57125e-06
9.65998e-07
9.25429e-07
9.21625e-07
3.02949e-07
8.60903e-07
-3.1576e-07
7.81811e-07
-9.47384e-07
6.80754e-07
-1.60471e-06
5.49391e-07
-2.3034e-06
3.76862e-07
-3.09872e-06
1.53005e-07
-4.15382e-06
-9.58288e-08
-5.74675e-06
-2.44565e-07
-8.04544e-06
-1.11639e-05
4.89619e-07
4.03732e-06
8.36993e-07
5.28829e-06
1.10683e-06
5.36358e-06
1.31084e-06
5.02596e-06
1.45809e-06
4.39099e-06
1.55805e-06
3.66607e-06
1.61792e-06
2.93256e-06
1.64415e-06
2.2313e-06
1.64117e-06
1.57423e-06
1.61077e-06
9.55838e-07
1.55187e-06
3.61846e-07
1.46221e-06
-2.26099e-07
1.33904e-06
-8.24214e-07
1.17938e-06
-1.44505e-06
9.78882e-07
-2.1029e-06
7.27816e-07
-2.84766e-06
4.08723e-07
-3.83473e-06
6.1264e-08
-5.39929e-06
-1.52283e-07
-7.83189e-06
-1.13161e-05
6.14939e-07
3.42238e-06
1.07455e-06
4.82868e-06
1.4386e-06
4.99954e-06
1.73965e-06
4.72491e-06
1.96663e-06
4.164e-06
2.13047e-06
3.50223e-06
2.23882e-06
2.82421e-06
2.29851e-06
2.1716e-06
2.31438e-06
1.55837e-06
2.28819e-06
9.82029e-07
2.21821e-06
4.31817e-07
2.10029e-06
-1.08177e-07
1.93216e-06
-6.56078e-07
1.71052e-06
-1.22342e-06
1.43423e-06
-1.82661e-06
1.09846e-06
-2.51189e-06
6.89748e-07
-3.42602e-06
2.75996e-07
-4.98554e-06
4.68377e-09
-7.56058e-06
-1.13115e-05
7.07869e-07
2.71451e-06
1.26871e-06
4.26784e-06
1.73161e-06
4.53664e-06
2.1326e-06
4.32392e-06
2.45214e-06
3.84446e-06
2.69387e-06
3.2605e-06
2.86395e-06
2.65413e-06
2.9689e-06
2.06666e-06
3.01321e-06
1.51405e-06
2.99859e-06
9.96657e-07
2.92328e-06
5.07123e-07
2.78047e-06
3.46324e-08
2.5693e-06
-4.44904e-07
2.286e-06
-9.40123e-07
1.93091e-06
-1.47151e-06
1.50773e-06
-2.08871e-06
1.00735e-06
-2.92564e-06
5.09208e-07
-4.4874e-06
1.34659e-07
-7.18603e-06
-1.11768e-05
6.86972e-07
2.02754e-06
1.32269e-06
3.63212e-06
1.90552e-06
3.95381e-06
2.42923e-06
3.80022e-06
2.86706e-06
3.40663e-06
3.21192e-06
2.91564e-06
3.46596e-06
2.40009e-06
3.63449e-06
1.89813e-06
3.72157e-06
1.42696e-06
3.72914e-06
9.89091e-07
3.65575e-06
5.8051e-07
3.50147e-06
1.88918e-07
3.25407e-06
-1.97509e-07
2.91824e-06
-6.04292e-07
2.4909e-06
-1.04417e-06
1.98489e-06
-1.5827e-06
1.39432e-06
-2.33506e-06
8.02977e-07
-3.89606e-06
3.15428e-07
-6.69848e-06
-1.08614e-05
5.8414e-07
1.4434e-06
1.28996e-06
2.9263e-06
2.00034e-06
3.24342e-06
2.65404e-06
3.14652e-06
3.21722e-06
2.84345e-06
3.67652e-06
2.45634e-06
4.02679e-06
2.04982e-06
4.27016e-06
1.65476e-06
4.4112e-06
1.28592e-06
4.45334e-06
9.46949e-07
4.39852e-06
6.35331e-07
4.24819e-06
3.39253e-07
3.99133e-06
5.93517e-08
3.6361e-06
-2.49059e-07
3.16833e-06
-5.7641e-07
2.60446e-06
-1.01882e-06
1.9466e-06
-1.67721e-06
1.25373e-06
-3.20319e-06
5.85251e-07
-6.03e-06
-1.02761e-05
1.16172e-07
1.32723e-06
9.03094e-07
2.13938e-06
1.78595e-06
2.36057e-06
2.62271e-06
2.30976e-06
3.35274e-06
2.11343e-06
3.9574e-06
1.85168e-06
4.4346e-06
1.57261e-06
4.78514e-06
1.30423e-06
5.01687e-06
1.05418e-06
5.13592e-06
8.27899e-07
5.14814e-06
6.23115e-07
5.05665e-06
4.30748e-07
4.86445e-06
2.51548e-07
4.58209e-06
3.33008e-08
4.1613e-06
-1.55624e-07
3.62697e-06
-4.84492e-07
2.94707e-06
-9.97306e-07
2.16075e-06
-2.41687e-06
1.11667e-06
-4.98592e-06
-9.15946e-06
-5.60722e-07
1.88795e-06
3.60963e-07
1.21769e-06
1.52115e-06
1.20038e-06
2.6077e-06
1.22321e-06
3.55397e-06
1.16715e-06
4.35408e-06
1.05158e-06
5.01249e-06
9.14202e-07
5.5284e-06
7.88316e-07
5.91727e-06
6.65304e-07
6.18423e-06
5.60937e-07
6.35134e-06
4.56009e-07
6.41395e-06
3.6814e-07
6.3927e-06
2.72791e-07
6.24475e-06
1.81258e-07
6.01298e-06
7.61406e-08
5.66247e-06
-1.33977e-07
5.11926e-06
-4.54095e-07
4.28316e-06
-1.58078e-06
2.53906e-06
-3.24181e-06
-6.6204e-06
1.88795e-06
3.10564e-06
4.30602e-06
5.52923e-06
6.69638e-06
7.74796e-06
8.66216e-06
9.45048e-06
1.01158e-05
1.06767e-05
1.11327e-05
1.15009e-05
1.17737e-05
1.19549e-05
1.20311e-05
1.18971e-05
1.1443e-05
9.86221e-06
6.6204e-06
)
;

boundaryField
{
    movingWall
    {
        type            calculated;
        value           uniform 0;
    }
    fixedWalls
    {
        type            calculated;
        value           uniform 0;
    }
    frontAndBack
    {
        type            empty;
        value           nonuniform 0();
    }
}


// ************************************************************************* //
