/*--------------------------------*- C++ -*----------------------------------*\
| =========                 |                                                 |
| \\      /  F ield         | OpenFOAM: The Open Source CFD Toolbox           |
|  \\    /   O peration     | Version:  5.0                                   |
|   \\  /    A nd           | Web:      www.OpenFOAM.org                      |
|    \\/     M anipulation  |                                                 |
\*---------------------------------------------------------------------------*/
FoamFile
{
    version     2.0;
    format      ascii;
    class       volVectorField;
    location    "5.5";
    object      U;
}
// * * * * * * * * * * * * * * * * * * * * * * * * * * * * * * * * * * * * * //

dimensions      [0 1 -1 0 0 0 0];

internalField   nonuniform List<vector> 
400
(
(0.00200034 -0.00262483 0)
(0.00509468 -0.00110806 0)
(-0.00263618 0.00135179 0)
(-0.0135935 0.00613266 0)
(-0.043898 0.0134067 0)
(-0.0706933 0.0120194 0)
(-0.0933678 0.0104901 0)
(-0.111873 0.0082505 0)
(-0.125922 0.00637042 0)
(-0.13628 0.00427224 0)
(-0.142621 0.00242264 0)
(-0.145386 0.000620048 0)
(-0.145071 -0.00218224 0)
(-0.139365 -0.00442532 0)
(-0.129653 -0.00757435 0)
(-0.113612 -0.0104193 0)
(-0.0921473 -0.0135528 0)
(-0.0646679 -0.0154024 0)
(-0.0342223 -0.0137163 0)
(-0.00756156 -0.00366789 0)
(-0.000499756 -0.00552649 0)
(-0.0077317 0.00604166 0)
(-0.0274082 0.0212171 0)
(-0.0547491 0.035876 0)
(-0.0780268 0.0369746 0)
(-0.0975338 0.0339669 0)
(-0.113566 0.0290512 0)
(-0.126145 0.023704 0)
(-0.136081 0.0177561 0)
(-0.143667 0.0120359 0)
(-0.148041 0.00664247 0)
(-0.149568 0.00124198 0)
(-0.147689 -0.00458118 0)
(-0.142622 -0.0111047 0)
(-0.133648 -0.0189642 0)
(-0.120079 -0.0281488 0)
(-0.1015 -0.0384368 0)
(-0.0777569 -0.0476029 0)
(-0.0484623 -0.0498275 0)
(-0.0174683 -0.0317684 0)
(-0.00621375 0.00645654 0)
(-0.0248847 0.0290209 0)
(-0.0485684 0.046922 0)
(-0.0700193 0.0552655 0)
(-0.0865759 0.0535455 0)
(-0.100264 0.0479953 0)
(-0.111044 0.0401366 0)
(-0.119648 0.0315507 0)
(-0.125881 0.0235015 0)
(-0.129139 0.0157829 0)
(-0.130541 0.00799293 0)
(-0.129951 0.000109998 0)
(-0.127854 -0.00824827 0)
(-0.123239 -0.0173989 0)
(-0.116097 -0.0281082 0)
(-0.105679 -0.0407607 0)
(-0.0913802 -0.0555996 0)
(-0.0726769 -0.0715884 0)
(-0.0480057 -0.0829692 0)
(-0.0206494 -0.0715832 0)
(-0.00996561 0.0260929 0)
(-0.0317521 0.0507967 0)
(-0.0531034 0.0661265 0)
(-0.069295 0.0704219 0)
(-0.0809855 0.0662359 0)
(-0.0903839 0.0584127 0)
(-0.0971045 0.048407 0)
(-0.101908 0.0379471 0)
(-0.104712 0.0276274 0)
(-0.106277 0.0176823 0)
(-0.106507 0.0081745 0)
(-0.105534 -0.00130082 0)
(-0.103258 -0.0112517 0)
(-0.0993784 -0.0222967 0)
(-0.0938572 -0.0351721 0)
(-0.0862312 -0.0505425 0)
(-0.0757343 -0.0687465 0)
(-0.0614177 -0.0889856 0)
(-0.0412719 -0.106782 0)
(-0.0188878 -0.104335 0)
(-0.0106074 0.0458761 0)
(-0.0310412 0.0700517 0)
(-0.0484528 0.0817062 0)
(-0.0605313 0.0823368 0)
(-0.0690795 0.0755427 0)
(-0.0753841 0.0653248 0)
(-0.079398 0.0533013 0)
(-0.0820428 0.04109 0)
(-0.0834034 0.0293128 0)
(-0.08386 0.0181916 0)
(-0.0833535 0.00756154 0)
(-0.0819998 -0.00296539 0)
(-0.0797543 -0.0139106 0)
(-0.0765601 -0.0260279 0)
(-0.0723742 -0.040194 0)
(-0.0669904 -0.0573617 0)
(-0.0597716 -0.0782973 0)
(-0.0492843 -0.102852 0)
(-0.0334168 -0.126818 0)
(-0.0167908 -0.131761 0)
(-0.00901108 0.0640732 0)
(-0.0265635 0.0868685 0)
(-0.0395342 0.0942916 0)
(-0.0488349 0.0916168 0)
(-0.0550196 0.0821626 0)
(-0.0592305 0.0697256 0)
(-0.0617092 0.0560505 0)
(-0.0632218 0.0426157 0)
(-0.0638283 0.0299072 0)
(-0.063748 0.0179824 0)
(-0.0629729 0.00657908 0)
(-0.061584 -0.00469048 0)
(-0.0595785 -0.0163362 0)
(-0.0569816 -0.029097 0)
(-0.0538186 -0.043928 0)
(-0.0500262 -0.0619784 0)
(-0.0452692 -0.084375 0)
(-0.0381799 -0.111711 0)
(-0.0278217 -0.141826 0)
(-0.0116215 -0.154076 0)
(-0.00735056 0.0795879 0)
(-0.020349 0.0999787 0)
(-0.0296023 0.104139 0)
(-0.0365819 0.0985558 0)
(-0.0408457 0.0868105 0)
(-0.0436722 0.072611 0)
(-0.0452778 0.0577336 0)
(-0.0462131 0.0434318 0)
(-0.0465232 0.0300443 0)
(-0.0463521 0.0175186 0)
(-0.0456931 0.00555209 0)
(-0.0445625 -0.00626568 0)
(-0.0429496 -0.0184444 0)
(-0.0409154 -0.0316508 0)
(-0.0385601 -0.0468515 0)
(-0.035937 -0.0653592 0)
(-0.0329366 -0.0886005 0)
(-0.0281608 -0.118081 0)
(-0.0223528 -0.152303 0)
(-0.00946707 -0.172378 0)
(-0.00473074 0.0909634 0)
(-0.0136733 0.109738 0)
(-0.0199295 0.111365 0)
(-0.0247212 0.103451 0)
(-0.0274493 0.0900367 0)
(-0.0293007 0.0745854 0)
(-0.0303718 0.0588743 0)
(-0.0310382 0.0439668 0)
(-0.0313237 0.0301089 0)
(-0.0313005 0.0171667 0)
(-0.0309353 0.00478565 0)
(-0.0302003 -0.00746386 0)
(-0.0290754 -0.0200612 0)
(-0.0276247 -0.0335797 0)
(-0.0260016 -0.0489064 0)
(-0.0243733 -0.0674593 0)
(-0.0228652 -0.0909908 0)
(-0.0200796 -0.121866 0)
(-0.0179381 -0.159283 0)
(-0.00631828 -0.186956 0)
(-0.00279486 0.0981481 0)
(-0.00730157 0.115648 0)
(-0.0109395 0.115739 0)
(-0.0136035 0.106534 0)
(-0.0150492 0.0920935 0)
(-0.0161213 0.0758888 0)
(-0.0167982 0.0596881 0)
(-0.0173119 0.0444242 0)
(-0.0176528 0.0302868 0)
(-0.0178291 0.0170796 0)
(-0.0177892 0.00440681 0)
(-0.0174884 -0.00817135 0)
(-0.0169087 -0.0210882 0)
(-0.016113 -0.0348202 0)
(-0.0152733 -0.0501214 0)
(-0.0145949 -0.0684362 0)
(-0.0145679 -0.091922 0)
(-0.0132803 -0.123765 0)
(-0.0145028 -0.163474 0)
(-0.00469208 -0.198766 0)
(0.00026434 0.100953 0)
(-0.00142235 0.11898 0)
(-0.00260619 0.118001 0)
(-0.00326595 0.107973 0)
(-0.0035544 0.0931037 0)
(-0.00387891 0.0766024 0)
(-0.00415969 0.0602326 0)
(-0.00450315 0.0448455 0)
(-0.00486053 0.0305975 0)
(-0.00519428 0.0172597 0)
(-0.00544943 0.0044214 0)
(-0.00558924 -0.00835235 0)
(-0.00560473 -0.0214552 0)
(-0.00555749 -0.0352728 0)
(-0.00562262 -0.0504098 0)
(-0.00595638 -0.0682516 0)
(-0.00763416 -0.0913094 0)
(-0.00742759 -0.123695 0)
(-0.0118225 -0.165138 0)
(-0.00253198 -0.208119 0)
(0.0021095 0.0995852 0)
(0.00384014 0.11866 0)
(0.00532003 0.117505 0)
(0.00646759 0.107803 0)
(0.00729422 0.0929935 0)
(0.00776812 0.0766643 0)
(0.00796612 0.0604493 0)
(0.00788196 0.0451659 0)
(0.00759851 0.0309759 0)
(0.0071779 0.0176567 0)
(0.00666694 0.00480963 0)
(0.00608365 -0.00798514 0)
(0.00541787 -0.0210923 0)
(0.00461695 -0.0348203 0)
(0.00351315 -0.0496358 0)
(0.00207798 -0.0668185 0)
(-0.00148009 -0.0892757 0)
(-0.0021174 -0.121699 0)
(-0.00986013 -0.164942 0)
(-0.00101118 -0.215526 0)
(0.00383858 0.0955491 0)
(0.00882192 0.116211 0)
(0.012378 0.115372 0)
(0.0154406 0.106527 0)
(0.0176293 0.0920424 0)
(0.0190524 0.076124 0)
(0.0198922 0.0602837 0)
(0.0202147 0.0452991 0)
(0.0201259 0.0313409 0)
(0.0197026 0.0182165 0)
(0.0189787 0.00555655 0)
(0.017955 -0.00704079 0)
(0.0165945 -0.0199197 0)
(0.0148538 -0.0333426 0)
(0.0125957 -0.0476572 0)
(0.0098105 -0.0640113 0)
(0.00436319 -0.0856407 0)
(0.00312256 -0.117694 0)
(-0.00843123 -0.162821 0)
(0.00126461 -0.221012 0)
(0.00564702 0.0872192 0)
(0.0133834 0.110089 0)
(0.0193471 0.110382 0)
(0.0238872 0.103039 0)
(0.0276315 0.0896533 0)
(0.0301616 0.0746048 0)
(0.0318216 0.0594753 0)
(0.032727 0.0450548 0)
(0.032983 0.0315626 0)
(0.0326644 0.0188618 0)
(0.0317926 0.00663183 0)
(0.0303492 -0.00550352 0)
(0.0282633 -0.0178672 0)
(0.025507 -0.030718 0)
(0.0219283 -0.0443325 0)
(0.0176846 -0.0597551 0)
(0.0103472 -0.0801986 0)
(0.00834431 -0.111829 0)
(-0.00738902 -0.159272 0)
(0.00392206 -0.224853 0)
(0.00707487 0.0764395 0)
(0.0170918 0.102927 0)
(0.0251579 0.104888 0)
(0.0315356 0.0984572 0)
(0.036999 0.0863236 0)
(0.0409855 0.0722765 0)
(0.0437758 0.0580147 0)
(0.0455123 0.0443579 0)
(0.0463065 0.0315565 0)
(0.0462309 0.0195212 0)
(0.0453039 0.00799216 0)
(0.0434831 -0.00338345 0)
(0.0406663 -0.0148924 0)
(0.0368611 -0.0268459 0)
(0.0318264 -0.0395181 0)
(0.0260821 -0.053846 0)
(0.0167703 -0.072894 0)
(0.013795 -0.104216 0)
(-0.00615581 -0.154084 0)
(0.0079519 -0.227139 0)
(0.00820387 0.0624483 0)
(0.0203372 0.0912977 0)
(0.0301597 0.0956511 0)
(0.0384572 0.0908888 0)
(0.045733 0.0805888 0)
(0.0514502 0.0681287 0)
(0.0556686 0.0552311 0)
(0.0584972 0.0427616 0)
(0.0600491 0.0310262 0)
(0.0603911 0.0200085 0)
(0.0595358 0.00952205 0)
(0.0574335 -0.000761149 0)
(0.0539246 -0.0110226 0)
(0.049124 -0.0216975 0)
(0.0425632 -0.0331173 0)
(0.035332 -0.0462152 0)
(0.0238508 -0.0638839 0)
(0.019909 -0.0952505 0)
(-0.00433746 -0.148576 0)
(0.0129367 -0.228211 0)
(0.0076943 0.0478365 0)
(0.0210183 0.0807766 0)
(0.0326162 0.0867749 0)
(0.0431592 0.0828868 0)
(0.0527748 0.0739357 0)
(0.0607398 0.0629653 0)
(0.0668763 0.051532 0)
(0.0712113 0.0404435 0)
(0.073844 0.0300293 0)
(0.0748654 0.0203204 0)
(0.0742386 0.0111917 0)
(0.0720673 0.00235378 0)
(0.0680234 -0.00632923 0)
(0.0624543 -0.0153856 0)
(0.0544378 -0.0251976 0)
(0.0459718 -0.0368645 0)
(0.0321647 -0.0530144 0)
(0.0275572 -0.0846664 0)
(-0.00167705 -0.140899 0)
(0.0197005 -0.227688 0)
(0.00560316 0.0330196 0)
(0.0198124 0.0638822 0)
(0.0332871 0.0717696 0)
(0.046291 0.069792 0)
(0.0583963 0.0630291 0)
(0.0688206 0.0543131 0)
(0.077123 0.0450574 0)
(0.0832094 0.0360245 0)
(0.0871388 0.027567 0)
(0.0890805 0.0197385 0)
(0.0889342 0.0124741 0)
(0.0870503 0.00551887 0)
(0.0828034 -0.00127744 0)
(0.0771316 -0.00841337 0)
(0.0682159 -0.0161125 0)
(0.0592725 -0.0260064 0)
(0.0434513 -0.040137 0)
(0.0386006 -0.0722235 0)
(0.00323119 -0.131424 0)
(0.0289195 -0.221735 0)
(-0.00438438 0.0246276 0)
(0.0104467 0.0539877 0)
(0.0270781 0.0597139 0)
(0.0438007 0.0579277 0)
(0.059431 0.0524323 0)
(0.0729611 0.0455256 0)
(0.0839828 0.0383661 0)
(0.0924365 0.0314101 0)
(0.0983404 0.0249128 0)
(0.10199 0.019009 0)
(0.103218 0.013659 0)
(0.102685 0.0086873 0)
(0.0994422 0.00402337 0)
(0.0953295 -0.000848409 0)
(0.087208 -0.00618041 0)
(0.0797001 -0.0138056 0)
(0.0629911 -0.0260253 0)
(0.058215 -0.0572932 0)
(0.0159435 -0.116604 0)
(0.0445637 -0.200843 0)
(-0.0139349 0.0313798 0)
(-0.0045664 0.0267419 0)
(0.0190349 0.0300706 0)
(0.0412941 0.0311145 0)
(0.0614035 0.0294056 0)
(0.0789215 0.0261068 0)
(0.0937089 0.0223311 0)
(0.10561 0.0187491 0)
(0.11478 0.0154164 0)
(0.121433 0.0123708 0)
(0.125723 0.00963035 0)
(0.128119 0.00697513 0)
(0.128203 0.00465791 0)
(0.126948 0.00157899 0)
(0.122109 -0.00113016 0)
(0.117574 -0.00704272 0)
(0.103812 -0.0163891 0)
(0.0995564 -0.0433857 0)
(0.0550524 -0.0906598 0)
(0.0764997 -0.153709 0)
(0.0409207 0.0386694 0)
(0.0468563 0.0278912 0)
(0.070388 0.0239228 0)
(0.0978114 0.0229726 0)
(0.121967 0.0219518 0)
(0.143587 0.0202751 0)
(0.163552 0.0181071 0)
(0.180666 0.0162048 0)
(0.195731 0.0141871 0)
(0.207947 0.0127246 0)
(0.21843 0.0109686 0)
(0.226391 0.00991751 0)
(0.232935 0.00821587 0)
(0.237065 0.00739337 0)
(0.239873 0.00528056 0)
(0.238696 0.00311411 0)
(0.231825 0.00214813 0)
(0.218164 -0.00871351 0)
(0.169301 -0.0130845 0)
(0.145524 -0.0662407 0)
)
;

boundaryField
{
    movingWall
    {
        type            fixedValue;
        value           uniform (1 0 0);
    }
    fixedWalls
    {
        type            noSlip;
    }
    frontAndBack
    {
        type            empty;
    }
}


// ************************************************************************* //
