/*--------------------------------*- C++ -*----------------------------------*\
| =========                 |                                                 |
| \\      /  F ield         | OpenFOAM: The Open Source CFD Toolbox           |
|  \\    /   O peration     | Version:  5.0                                   |
|   \\  /    A nd           | Web:      www.OpenFOAM.org                      |
|    \\/     M anipulation  |                                                 |
\*---------------------------------------------------------------------------*/
FoamFile
{
    version     2.0;
    format      ascii;
    class       volScalarField;
    location    "0.3";
    object      Co;
}
// * * * * * * * * * * * * * * * * * * * * * * * * * * * * * * * * * * * * * //

dimensions      [0 0 0 0 0 0 0];

internalField   nonuniform List<scalar> 
400
(
0.00028495
0.000728819
0.00228522
0.00490948
0.00792132
0.0109464
0.0136626
0.0158119
0.0172026
0.0177113
0.0177113
0.0172849
0.0159464
0.0138005
0.0110386
0.00793825
0.00485464
0.00219454
0.000682085
0.000313747
0.000684244
0.00433603
0.0105202
0.0179118
0.0256544
0.0329677
0.0391802
0.0437568
0.0463128
0.0466258
0.0465436
0.0464131
0.0440036
0.0394844
0.0332189
0.0257636
0.0178495
0.0103337
0.00413572
0.000616013
0.00224339
0.0107912
0.0222029
0.0346005
0.046658
0.0573024
0.0656818
0.0711666
0.0733521
0.0720686
0.0718339
0.0734214
0.0715214
0.0662037
0.0578115
0.0469779
0.03463
0.0219694
0.0104586
0.00204887
0.00514737
0.0194552
0.0366946
0.0542579
0.0703729
0.0837338
0.0934046
0.098774
0.0995296
0.0956532
0.0951992
0.0995795
0.099332
0.094313
0.084716
0.0711239
0.0545594
0.0365191
0.0190141
0.00483497
0.00901925
0.0302501
0.0538966
0.0767686
0.0967303
0.112321
0.122605
0.127078
0.125599
0.118364
0.117563
0.125638
0.12799
0.124176
0.114136
0.098295
0.0776778
0.054008
0.0297971
0.00859006
0.0138177
0.0431841
0.0738612
0.102196
0.125801
0.143166
0.153456
0.156359
0.151974
0.140756
0.139369
0.151957
0.157788
0.156047
0.146319
0.128753
0.104253
0.0746679
0.0429343
0.0133134
0.0195523
0.0583264
0.096695
0.130628
0.157618
0.176245
0.185903
0.186575
0.178673
0.162942
0.160576
0.178444
0.188639
0.189906
0.181361
0.162724
0.134609
0.098833
0.0586609
0.0190788
0.0262788
0.0757984
0.122513
0.162086
0.192051
0.211267
0.219527
0.217244
0.20522
0.184526
0.180606
0.204462
0.21994
0.225286
0.219019
0.20023
0.169
0.126879
0.0773097
0.0260328
0.0340978
0.0957693
0.151405
0.196445
0.228688
0.247531
0.253396
0.247294
0.23052
0.204497
0.198267
0.228699
0.2504
0.261075
0.258506
0.240906
0.207484
0.159161
0.0992972
0.0343946
0.0431668
0.118464
0.183405
0.233348
0.266697
0.283752
0.285876
0.274889
0.25269
0.221083
0.211649
0.24902
0.277842
0.295278
0.298241
0.28377
0.249747
0.195921
0.125109
0.0444662
0.0537336
0.144188
0.218452
0.272084
0.304635
0.317843
0.314408
0.297211
0.268871
0.231579
0.218013
0.26231
0.298988
0.324739
0.335525
0.326905
0.29486
0.237162
0.15528
0.05666
0.066207
0.17337
0.256298
0.311364
0.340156
0.346594
0.335214
0.310213
0.27501
0.232157
0.213696
0.264331
0.309242
0.344833
0.366145
0.36702
0.340878
0.282405
0.19036
0.0715556
0.0812888
0.206584
0.296292
0.348909
0.369512
0.365215
0.342928
0.308347
0.265681
0.21773
0.194055
0.249649
0.302542
0.349174
0.383916
0.398848
0.384234
0.330258
0.230799
0.0900044
0.100193
0.244473
0.336825
0.380636
0.386745
0.366691
0.330168
0.284342
0.233985
0.181906
0.153498
0.211706
0.271366
0.329452
0.380216
0.414368
0.418765
0.377592
0.276651
0.113292
0.12494
0.287235
0.37401
0.399106
0.382384
0.340915
0.287121
0.229118
0.171678
0.117191
0.0856668
0.143135
0.207047
0.275537
0.343679
0.401885
0.434228
0.41795
0.32669
0.143294
0.158416
0.332756
0.398651
0.390731
0.341556
0.273786
0.201388
0.136494
0.0924672
0.0584557
0.0303929
0.0692912
0.1114
0.176175
0.260362
0.345202
0.41419
0.438539
0.376032
0.182193
0.20303
0.371087
0.38994
0.331303
0.259776
0.227859
0.224504
0.218963
0.207877
0.188461
0.167959
0.195231
0.213853
0.226299
0.235991
0.260583
0.333512
0.415039
0.410376
0.230424
0.254506
0.370143
0.318134
0.284107
0.304348
0.327427
0.347775
0.361773
0.367124
0.362164
0.351356
0.365765
0.369218
0.363033
0.349243
0.331504
0.315912
0.341796
0.393338
0.279591
0.270206
0.318666
0.341719
0.400667
0.457558
0.504559
0.540357
0.565229
0.579724
0.58415
0.581505
0.585014
0.578247
0.560792
0.531809
0.49058
0.438121
0.381911
0.344172
0.282174
0.270206
0.491557
0.627326
0.712122
0.76652
0.801918
0.82506
0.839861
0.848507
0.852131
0.852132
0.851152
0.845378
0.833903
0.814744
0.784034
0.734486
0.652672
0.514208
0.282174
)
;

boundaryField
{
    movingWall
    {
        type            zeroGradient;
    }
    fixedWalls
    {
        type            zeroGradient;
    }
    frontAndBack
    {
        type            empty;
    }
}


// ************************************************************************* //
