/*--------------------------------*- C++ -*----------------------------------*\
| =========                 |                                                 |
| \\      /  F ield         | OpenFOAM: The Open Source CFD Toolbox           |
|  \\    /   O peration     | Version:  5.0                                   |
|   \\  /    A nd           | Web:      www.OpenFOAM.org                      |
|    \\/     M anipulation  |                                                 |
\*---------------------------------------------------------------------------*/
FoamFile
{
    version     2.0;
    format      ascii;
    class       volScalarField;
    location    "8";
    object      epsilon;
}
// * * * * * * * * * * * * * * * * * * * * * * * * * * * * * * * * * * * * * //

dimensions      [0 2 -3 0 0 0 0];

internalField   nonuniform List<scalar> 
400
(
1.98402e-05
6.81725e-05
0.000283605
0.000594409
0.000806768
0.000968529
0.00110024
0.00122633
0.00133705
0.00145045
0.00155671
0.00166909
0.00178227
0.00185834
0.00189342
0.00189699
0.00176044
0.00139436
0.000857472
0.000616462
8.94507e-05
0.000259483
0.000690291
0.000972961
0.0010416
0.0010696
0.00107973
0.00112314
0.00117291
0.00126067
0.00136892
0.00150998
0.00167688
0.00187471
0.00209289
0.00231086
0.00241444
0.00242403
0.00192071
0.00126174
0.000293993
0.000788033
0.00101636
0.00104853
0.00103166
0.00102155
0.0010148
0.00105333
0.00111365
0.00119174
0.00128034
0.00137977
0.00149786
0.00164485
0.00182781
0.00205123
0.00224904
0.00232889
0.00215464
0.00162535
0.000667262
0.0010667
0.00109024
0.00101722
0.000962846
0.000927986
0.000921577
0.000943748
0.000971473
0.00100198
0.00104146
0.00110284
0.00119899
0.00134081
0.00155024
0.00183519
0.00215237
0.00229895
0.00226451
0.00186085
0.000968422
0.00120996
0.00106508
0.000934436
0.000846069
0.000801295
0.000775209
0.000756684
0.000738949
0.000731474
0.000733723
0.000773481
0.000856398
0.00100472
0.00124837
0.00161597
0.00210312
0.00239944
0.00244073
0.00203797
0.00113072
0.00120391
0.000996631
0.000826587
0.000734349
0.000673499
0.000619277
0.00056485
0.000513903
0.000482488
0.000470764
0.000484042
0.000554083
0.000692693
0.000944649
0.00136601
0.00199916
0.00255334
0.00269517
0.00218066
0.00115896
0.00115965
0.000899856
0.00073187
0.000636514
0.000560389
0.000484994
0.000410495
0.00034624
0.000305642
0.000288837
0.000288091
0.000338367
0.000452314
0.000680986
0.00111124
0.001845
0.00270025
0.00298727
0.00229169
0.00114136
0.00106741
0.000811532
0.000654083
0.000558022
0.000472454
0.000386365
0.000305875
0.000241617
0.000201861
0.000184466
0.000181612
0.000212711
0.000294651
0.00048067
0.000877719
0.00164335
0.00278114
0.00334398
0.00238214
0.00109702
0.000962539
0.000735334
0.000593412
0.000499766
0.000410928
0.000322428
0.000243775
0.000184554
0.00014945
0.000134398
0.000132105
0.000152538
0.000208873
0.000349386
0.00069835
0.00148191
0.0028052
0.00369715
0.00244535
0.0010091
0.000874231
0.000674173
0.000548125
0.00045922
0.000372156
0.000286248
0.000212037
0.000158701
0.000127469
0.00011401
0.000112972
0.00012765
0.000168685
0.000273665
0.000562786
0.00131635
0.00280603
0.00407307
0.00249231
0.000918695
0.000797356
0.000625724
0.000514801
0.000432538
0.000350312
0.000269811
0.000203348
0.000155174
0.000125288
0.000110385
0.000109163
0.000120558
0.000153707
0.000238758
0.000480979
0.00117993
0.00276875
0.00440923
0.00251479
0.000839636
0.000749562
0.000592224
0.000492794
0.000416511
0.00034177
0.000270429
0.000207452
0.000161207
0.000132075
0.000117234
0.000116004
0.000124045
0.000151304
0.000227385
0.000442283
0.00107969
0.00274004
0.00470415
0.00252402
0.000754578
0.000707766
0.000573398
0.000480257
0.000411259
0.000343639
0.000276838
0.000219389
0.000176586
0.000148684
0.00013328
0.000132226
0.000139413
0.000163692
0.000229983
0.000429426
0.00103159
0.0027261
0.00485707
0.00252513
0.000675529
0.000688589
0.000579382
0.000484701
0.000416286
0.000352107
0.000291844
0.000240795
0.000201353
0.0001747
0.000158244
0.000157276
0.000164387
0.000188797
0.00025445
0.00044261
0.00101585
0.00272364
0.00491537
0.00251548
0.000586158
0.000661852
0.000592293
0.000501122
0.000432944
0.000371524
0.000315883
0.000269016
0.000232533
0.000207887
0.000191136
0.000191196
0.000199148
0.000226126
0.000296946
0.000493381
0.00105137
0.00277059
0.00487717
0.00247061
0.000494588
0.000650639
0.000622127
0.00054715
0.000475064
0.000412816
0.000357701
0.000311377
0.000274933
0.000250468
0.000233859
0.000235067
0.000246102
0.000280578
0.000367107
0.000596401
0.0011782
0.00289354
0.004605
0.00238502
0.00039343
0.00060107
0.000633409
0.000608466
0.000553716
0.000492357
0.00043391
0.000383326
0.000343662
0.000316187
0.000302559
0.000307226
0.000327442
0.000383487
0.000513525
0.000836987
0.0015033
0.00317723
0.00415067
0.00224591
0.000264722
0.000534296
0.000702155
0.000752591
0.000736333
0.000685824
0.000619293
0.000560287
0.000516238
0.000489427
0.000493596
0.000518957
0.000580852
0.000717341
0.000994243
0.00163407
0.00245762
0.00375324
0.0038541
0.0020558
0.000285362
0.000542535
0.000926976
0.00110325
0.00116642
0.0011631
0.00114472
0.00114477
0.00116509
0.00122398
0.00134686
0.00156468
0.00186559
0.00235642
0.00298029
0.00394056
0.00461775
0.004438
0.00381133
0.00178964
0.000206779
0.000322851
0.000591441
0.00085314
0.00105552
0.00118181
0.00125533
0.00130245
0.00132459
0.00134291
0.0013519
0.00137001
0.00138565
0.00142008
0.00144562
0.00150849
0.00157937
0.00166264
0.00164643
0.00147402
)
;

boundaryField
{
    movingWall
    {
        Cmu             0.09;
        kappa           0.41;
        E               9.8;
        type            epsilonWallFunction;
        value           nonuniform List<scalar> 
20
(
0.000206779
0.000322851
0.000591441
0.00085314
0.00105552
0.00118181
0.00125533
0.00130245
0.00132459
0.00134291
0.0013519
0.00137001
0.00138565
0.00142008
0.00144562
0.00150849
0.00157937
0.00166264
0.00164643
0.00147402
)
;
    }
    fixedWalls
    {
        Cmu             0.09;
        kappa           0.41;
        E               9.8;
        type            epsilonWallFunction;
        value           nonuniform List<scalar> 
60
(
1.98402e-05
8.94507e-05
0.000293993
0.000667262
0.000968422
0.00113072
0.00115896
0.00114136
0.00109702
0.0010091
0.000918695
0.000839636
0.000754578
0.000675529
0.000586158
0.000494588
0.00039343
0.000264722
0.000285362
0.000206779
0.000616462
0.00126174
0.00162535
0.00186085
0.00203797
0.00218066
0.00229169
0.00238214
0.00244535
0.00249231
0.00251479
0.00252402
0.00252513
0.00251548
0.00247061
0.00238502
0.00224591
0.0020558
0.00178964
0.00147402
1.98402e-05
6.81725e-05
0.000283605
0.000594409
0.000806768
0.000968529
0.00110024
0.00122633
0.00133705
0.00145045
0.00155671
0.00166909
0.00178227
0.00185834
0.00189342
0.00189699
0.00176044
0.00139436
0.000857472
0.000616462
)
;
    }
    frontAndBack
    {
        type            empty;
    }
}


// ************************************************************************* //
