/*--------------------------------*- C++ -*----------------------------------*\
| =========                 |                                                 |
| \\      /  F ield         | OpenFOAM: The Open Source CFD Toolbox           |
|  \\    /   O peration     | Version:  5.0                                   |
|   \\  /    A nd           | Web:      www.OpenFOAM.org                      |
|    \\/     M anipulation  |                                                 |
\*---------------------------------------------------------------------------*/
FoamFile
{
    version     2.0;
    format      ascii;
    class       volScalarField;
    location    "8";
    object      k;
}
// * * * * * * * * * * * * * * * * * * * * * * * * * * * * * * * * * * * * * //

dimensions      [0 2 -2 0 0 0 0];

internalField   nonuniform List<scalar> 
400
(
6.20464e-06
2.13281e-05
8.87058e-05
0.000185869
0.000252235
0.000302792
0.000343956
0.000383362
0.000417966
0.000453405
0.000486614
0.000521739
0.000557111
0.000580877
0.000591837
0.000592947
0.00055025
0.000435818
0.000268022
0.000192693
2.79739e-05
0.000100366
0.000222235
0.000381584
0.000451278
0.000529135
0.00057518
0.000641335
0.000694795
0.000758031
0.000817644
0.000880128
0.000935994
0.000996561
0.00105033
0.00107789
0.00108449
0.000977681
0.000649645
0.000394357
9.19342e-05
0.000319252
0.000491561
0.000575455
0.00063375
0.000684548
0.000725277
0.00077653
0.000822409
0.000871368
0.000916353
0.000959771
0.00100189
0.00104942
0.00109655
0.00113167
0.00114465
0.00109888
0.000800471
0.000507973
0.000208635
0.000531579
0.000623612
0.000662778
0.00069389
0.000720126
0.000750315
0.000784622
0.000817056
0.000847638
0.000873019
0.000902917
0.000943891
0.000998035
0.00106764
0.00113815
0.00117048
0.00117232
0.000942065
0.00058156
0.000302784
0.000646353
0.000676288
0.000679197
0.000693233
0.000712544
0.000731736
0.000741189
0.000742385
0.00073841
0.000739187
0.000760651
0.000803917
0.000875331
0.000981812
0.0011184
0.00121549
0.00123994
0.00106689
0.000636898
0.000353504
0.000678269
0.000680257
0.000674953
0.000680999
0.000683419
0.000671831
0.000641868
0.000611856
0.000592647
0.000585718
0.000595592
0.000639003
0.000719635
0.000851375
0.00103982
0.00123748
0.00131837
0.00120405
0.000681483
0.000362322
0.000671246
0.000673094
0.000660372
0.000650818
0.000628027
0.000590504
0.000541166
0.000497463
0.000469342
0.000458168
0.000460219
0.000498534
0.000577221
0.00071668
0.000938482
0.00123824
0.00139497
0.0013333
0.000716171
0.000356818
0.000652793
0.000655177
0.000633788
0.000613524
0.000575817
0.000522774
0.000464109
0.000415371
0.000384557
0.000371776
0.000371057
0.000401175
0.000469308
0.000598647
0.000826505
0.00117843
0.00146079
0.00147234
0.000744429
0.000342956
0.000615917
0.000625638
0.000606037
0.000580568
0.000535003
0.000475026
0.000413917
0.000365379
0.000335185
0.000322417
0.000321432
0.000344134
0.000399615
0.000512834
0.000728911
0.00110137
0.00150836
0.00159357
0.000764175
0.000315472
0.00058487
0.000597969
0.000581787
0.00055512
0.000507298
0.000446294
0.000386525
0.00034043
0.000311572
0.000298943
0.000298917
0.000317006
0.000362123
0.000457278
0.000657164
0.00103043
0.00153054
0.00171719
0.000778838
0.000287214
0.000543574
0.000567383
0.000558677
0.000534726
0.000489767
0.000432052
0.000377028
0.000334203
0.000306132
0.000292118
0.000292526
0.000307612
0.000345979
0.000429594
0.000609073
0.000974099
0.00153901
0.00182006
0.000785858
0.000262501
0.000509002
0.000544423
0.000540975
0.000521968
0.000480924
0.000430102
0.000379286
0.000338344
0.000310955
0.000296745
0.000296863
0.000308006
0.000342014
0.000419657
0.000585493
0.00092997
0.00154153
0.00190468
0.000788739
0.000235911
0.000463784
0.000516907
0.00052108
0.000509789
0.000478499
0.000433157
0.000387312
0.000350052
0.000324333
0.000310526
0.000311174
0.0003214
0.000351838
0.000421578
0.000577973
0.000906101
0.00154221
0.00194516
0.000789082
0.000211197
0.000434788
0.000501803
0.000509965
0.000502656
0.000480177
0.000441215
0.000402505
0.000369745
0.000346281
0.000333157
0.000334315
0.000344715
0.000374743
0.000442274
0.000589603
0.000897906
0.00153962
0.00195725
0.00078606
0.000183256
0.00038794
0.000476304
0.000500229
0.000499133
0.000485602
0.000455603
0.000422645
0.00039453
0.000373988
0.000362734
0.000364685
0.000376001
0.000406981
0.000474723
0.0006216
0.000906428
0.00153596
0.00191665
0.000772028
0.000154624
0.000359868
0.000463497
0.000502351
0.000506334
0.000498756
0.000478933
0.000451448
0.000426821
0.000407953
0.000397921
0.00040065
0.000413401
0.000447052
0.000518729
0.000677232
0.000942507
0.00153532
0.00182234
0.000745271
0.000122996
0.000299339
0.000429672
0.000506701
0.000527978
0.000525648
0.000513944
0.000490093
0.000467288
0.000448791
0.000441612
0.000446357
0.000463489
0.000505701
0.000590156
0.000780407
0.00103592
0.00155534
0.00165749
0.000701782
8.27516e-05
0.000259564
0.000440088
0.000541528
0.000598543
0.000600164
0.000592291
0.000572853
0.000552094
0.000536884
0.000538928
0.000552527
0.000586118
0.000660458
0.000782783
0.00104937
0.00132454
0.00161207
0.00147675
0.000642364
8.91944e-05
0.000278739
0.000492986
0.000617376
0.000692708
0.000722284
0.000742465
0.000757703
0.000778158
0.000812175
0.000868614
0.000953495
0.00106984
0.00124242
0.00144631
0.0017439
0.00184555
0.00172307
0.00136402
0.000559182
6.46306e-05
0.000100909
0.000184859
0.000266654
0.000329901
0.000369364
0.000392333
0.000407048
0.00041396
0.000419671
0.000422472
0.00042811
0.000432989
0.000443724
0.000451693
0.000471319
0.000493457
0.000519471
0.000514406
0.000460544
)
;

boundaryField
{
    movingWall
    {
        type            kqRWallFunction;
        value           nonuniform List<scalar> 
20
(
6.46306e-05
0.000100909
0.000184859
0.000266654
0.000329901
0.000369364
0.000392333
0.000407048
0.00041396
0.000419671
0.000422472
0.00042811
0.000432989
0.000443724
0.000451693
0.000471319
0.000493457
0.000519471
0.000514406
0.000460544
)
;
    }
    fixedWalls
    {
        type            kqRWallFunction;
        value           nonuniform List<scalar> 
60
(
6.20464e-06
2.79739e-05
9.19342e-05
0.000208635
0.000302784
0.000353504
0.000362322
0.000356818
0.000342956
0.000315472
0.000287214
0.000262501
0.000235911
0.000211197
0.000183256
0.000154624
0.000122996
8.27516e-05
8.91944e-05
6.46306e-05
0.000192693
0.000394357
0.000507973
0.00058156
0.000636898
0.000681483
0.000716171
0.000744429
0.000764175
0.000778838
0.000785858
0.000788739
0.000789082
0.00078606
0.000772028
0.000745271
0.000701782
0.000642364
0.000559182
0.000460544
6.20464e-06
2.13281e-05
8.87058e-05
0.000185869
0.000252235
0.000302792
0.000343956
0.000383362
0.000417966
0.000453405
0.000486614
0.000521739
0.000557111
0.000580877
0.000591837
0.000592947
0.00055025
0.000435818
0.000268022
0.000192693
)
;
    }
    frontAndBack
    {
        type            empty;
    }
}


// ************************************************************************* //
