/*--------------------------------*- C++ -*----------------------------------*\
| =========                 |                                                 |
| \\      /  F ield         | OpenFOAM: The Open Source CFD Toolbox           |
|  \\    /   O peration     | Version:  5.0                                   |
|   \\  /    A nd           | Web:      www.OpenFOAM.org                      |
|    \\/     M anipulation  |                                                 |
\*---------------------------------------------------------------------------*/
FoamFile
{
    version     2.0;
    format      ascii;
    class       volScalarField;
    location    "8";
    object      nut;
}
// * * * * * * * * * * * * * * * * * * * * * * * * * * * * * * * * * * * * * //

dimensions      [0 2 -1 0 0 0 0];

internalField   nonuniform List<scalar> 
400
(
1.74635e-07
6.00536e-07
2.49708e-06
5.23081e-06
7.09749e-06
8.51958e-06
9.67746e-06
1.07859e-05
1.17592e-05
1.27559e-05
1.369e-05
1.4678e-05
1.5673e-05
1.63413e-05
1.66494e-05
1.66805e-05
1.5479e-05
1.22597e-05
7.53986e-06
5.42088e-06
7.87343e-07
3.49387e-06
6.43925e-06
1.34688e-05
1.75967e-05
2.35589e-05
2.75763e-05
3.29594e-05
3.70419e-05
4.10219e-05
4.39534e-05
4.61703e-05
4.70205e-05
4.76779e-05
4.74401e-05
4.52501e-05
4.38411e-05
3.54895e-05
1.97758e-05
1.10931e-05
2.58738e-06
1.16403e-05
2.13968e-05
2.8424e-05
3.5038e-05
4.12848e-05
4.66518e-05
5.1522e-05
5.46599e-05
5.73408e-05
5.90258e-05
6.00857e-05
6.03134e-05
6.02579e-05
5.92061e-05
5.61911e-05
5.24315e-05
4.66651e-05
2.67645e-05
1.42882e-05
5.87113e-06
2.38417e-05
3.21033e-05
3.88655e-05
4.50056e-05
5.02942e-05
5.49791e-05
5.87094e-05
6.18464e-05
6.45364e-05
6.5864e-05
6.65314e-05
6.68759e-05
6.68599e-05
6.61749e-05
6.3527e-05
5.72869e-05
5.38033e-05
3.52721e-05
1.63576e-05
8.52006e-06
3.1075e-05
3.86478e-05
4.44309e-05
5.11205e-05
5.70262e-05
6.2163e-05
6.5341e-05
6.71253e-05
6.70871e-05
6.70222e-05
6.73232e-05
6.79187e-05
6.86345e-05
6.94956e-05
6.96634e-05
6.32241e-05
5.76677e-05
4.19718e-05
1.79137e-05
9.94665e-06
3.43915e-05
4.17882e-05
4.96022e-05
5.68372e-05
6.24137e-05
6.5596e-05
6.56449e-05
6.55632e-05
6.5516e-05
6.55867e-05
6.59564e-05
6.63245e-05
6.72863e-05
6.9058e-05
7.12368e-05
6.89398e-05
6.12645e-05
4.8411e-05
1.91674e-05
1.01945e-05
3.49687e-05
4.53128e-05
5.36273e-05
5.98899e-05
6.33445e-05
6.4707e-05
6.42089e-05
6.4326e-05
6.48647e-05
6.54092e-05
6.61672e-05
6.61065e-05
6.62959e-05
6.78821e-05
7.13324e-05
7.47923e-05
6.4859e-05
5.35583e-05
2.01428e-05
1.00396e-05
3.59304e-05
4.76051e-05
5.52711e-05
6.07091e-05
6.31615e-05
6.36608e-05
6.3378e-05
6.42669e-05
6.59343e-05
6.74354e-05
6.82305e-05
6.80959e-05
6.72745e-05
6.71023e-05
7.00452e-05
7.6053e-05
6.90554e-05
5.83437e-05
2.09373e-05
9.64949e-06
3.54706e-05
4.79075e-05
5.57038e-05
6.06992e-05
6.26886e-05
6.29862e-05
6.32529e-05
6.51038e-05
6.76577e-05
6.96122e-05
7.03884e-05
6.98747e-05
6.88088e-05
6.77473e-05
6.84728e-05
7.36688e-05
7.29948e-05
6.18185e-05
2.14925e-05
8.87631e-06
3.52156e-05
4.77341e-05
5.55764e-05
6.03942e-05
6.22364e-05
6.26242e-05
6.34139e-05
6.57229e-05
6.85415e-05
7.05469e-05
7.11829e-05
7.08529e-05
6.99646e-05
6.87676e-05
6.90632e-05
7.2595e-05
7.51348e-05
6.51567e-05
2.19046e-05
8.08133e-06
3.3351e-05
4.63034e-05
5.45664e-05
5.9495e-05
6.16264e-05
6.22665e-05
6.29141e-05
6.47807e-05
6.7321e-05
6.95741e-05
7.05501e-05
7.06403e-05
7.00886e-05
6.95666e-05
6.94154e-05
7.23758e-05
7.69908e-05
6.76164e-05
2.21019e-05
7.38605e-06
3.11082e-05
4.50432e-05
5.34481e-05
5.88713e-05
6.09062e-05
6.15647e-05
6.24106e-05
6.3911e-05
6.58897e-05
6.76014e-05
6.83723e-05
6.88307e-05
6.95793e-05
6.97058e-05
6.97567e-05
7.20911e-05
7.80528e-05
6.94072e-05
2.21828e-05
6.63795e-06
2.73517e-05
4.19384e-05
5.08836e-05
5.68731e-05
5.99655e-05
6.09968e-05
6.1539e-05
6.24528e-05
6.36741e-05
6.51134e-05
6.59068e-05
6.66853e-05
6.80614e-05
6.95508e-05
7.00115e-05
7.16288e-05
7.8521e-05
7.01098e-05
2.21924e-05
5.94256e-06
2.4708e-05
3.91151e-05
4.82891e-05
5.46251e-05
5.89347e-05
6.00334e-05
6.05532e-05
6.11067e-05
6.17741e-05
6.31268e-05
6.39572e-05
6.5057e-05
6.69443e-05
6.91869e-05
7.06872e-05
7.14293e-05
7.83281e-05
7.01419e-05
2.21072e-05
5.15634e-06
2.04649e-05
3.44727e-05
4.49403e-05
5.17896e-05
5.71239e-05
5.9141e-05
5.97609e-05
6.02445e-05
6.05522e-05
6.19552e-05
6.26036e-05
6.38917e-05
6.59234e-05
6.8304e-05
7.04827e-05
7.03323e-05
7.66359e-05
6.7789e-05
2.17122e-05
4.35063e-06
1.79139e-05
3.10783e-05
4.15098e-05
4.85696e-05
5.4233e-05
5.77129e-05
5.89077e-05
5.96357e-05
5.98012e-05
6.0937e-05
6.14583e-05
6.24988e-05
6.41068e-05
6.59676e-05
6.92116e-05
6.78567e-05
7.33181e-05
6.4904e-05
2.09594e-05
3.46063e-06
1.34166e-05
2.62321e-05
3.79761e-05
4.53093e-05
5.05072e-05
5.47866e-05
5.63938e-05
5.71849e-05
5.73306e-05
5.80114e-05
5.83645e-05
5.90455e-05
6.00177e-05
6.104e-05
6.54887e-05
6.42472e-05
6.85247e-05
5.95695e-05
1.97359e-05
2.32812e-06
1.13487e-05
2.48249e-05
3.50692e-05
4.37883e-05
4.72683e-05
5.0982e-05
5.2713e-05
5.31396e-05
5.30049e-05
5.29582e-05
5.29442e-05
5.32289e-05
5.47276e-05
5.54667e-05
6.06498e-05
6.42476e-05
6.23168e-05
5.09251e-05
1.80644e-05
2.50912e-06
1.28887e-05
2.35963e-05
3.10934e-05
3.70243e-05
4.03684e-05
4.33405e-05
4.5136e-05
4.67757e-05
4.8503e-05
5.04165e-05
5.22942e-05
5.5216e-05
5.8956e-05
6.31691e-05
6.94591e-05
6.63837e-05
6.02087e-05
4.39346e-05
1.57247e-05
1.81808e-06
2.83855e-06
5.2001e-06
7.50101e-06
9.27993e-06
1.03897e-05
1.10356e-05
1.14491e-05
1.16433e-05
1.18035e-05
1.18821e-05
1.20401e-05
1.2177e-05
1.24784e-05
1.27021e-05
1.32535e-05
1.38758e-05
1.46072e-05
1.44648e-05
1.29504e-05
)
;

boundaryField
{
    movingWall
    {
        type            nutkWallFunction;
        Cmu             0.09;
        kappa           0.41;
        E               9.8;
        value           uniform 0;
    }
    fixedWalls
    {
        type            nutkWallFunction;
        Cmu             0.09;
        kappa           0.41;
        E               9.8;
        value           uniform 0;
    }
    frontAndBack
    {
        type            empty;
    }
}


// ************************************************************************* //
