/*--------------------------------*- C++ -*----------------------------------*\
| =========                 |                                                 |
| \\      /  F ield         | OpenFOAM: The Open Source CFD Toolbox           |
|  \\    /   O peration     | Version:  5.0                                   |
|   \\  /    A nd           | Web:      www.OpenFOAM.org                      |
|    \\/     M anipulation  |                                                 |
\*---------------------------------------------------------------------------*/
FoamFile
{
    version     2.0;
    format      ascii;
    class       volScalarField;
    location    "8";
    object      p;
}
// * * * * * * * * * * * * * * * * * * * * * * * * * * * * * * * * * * * * * //

dimensions      [0 2 -2 0 0 0 0];

internalField   nonuniform List<scalar> 
400
(
5.16948e-08
-7.94554e-05
-0.000147211
-0.000363258
-0.00119146
-0.00261458
-0.00428056
-0.00587176
-0.00715361
-0.00800365
-0.00831851
-0.00801177
-0.00706859
-0.00546972
-0.00321543
-0.000435732
0.00257214
0.00522742
0.00687402
0.00722902
8.02002e-05
-1.64135e-05
-0.000229177
-0.000830657
-0.00192982
-0.00344098
-0.00507847
-0.00660064
-0.00783687
-0.00867023
-0.00900532
-0.0087968
-0.00800029
-0.00656442
-0.00450462
-0.0018928
0.00103126
0.00379632
0.0057667
0.00655698
0.00024408
-8.70405e-05
-0.000703554
-0.00173947
-0.00316966
-0.00480087
-0.00642429
-0.00788582
-0.00906895
-0.00984693
-0.0101594
-0.0099779
-0.00928099
-0.00805484
-0.00629124
-0.00402634
-0.00139645
0.00130239
0.00356785
0.00471312
6.11046e-06
-0.000554842
-0.00159616
-0.00305223
-0.00474463
-0.00646869
-0.0080664
-0.00942629
-0.0104585
-0.0111179
-0.0113809
-0.0112299
-0.0106444
-0.00961665
-0.00814307
-0.00624427
-0.00399101
-0.00155138
0.000709012
0.00192194
-0.000805296
-0.0015602
-0.00289872
-0.0045903
-0.00638754
-0.00810025
-0.00960496
-0.0108289
-0.0117302
-0.0122944
-0.0125137
-0.0123819
-0.0118927
-0.0110444
-0.00983654
-0.00828186
-0.00641814
-0.00433391
-0.00228217
-0.00113582
-0.00215622
-0.00299253
-0.00442858
-0.00615717
-0.0079227
-0.00954476
-0.0109245
-0.0120172
-0.0128078
-0.0132938
-0.0134766
-0.0133597
-0.0129472
-0.0122448
-0.0112575
-0.00999549
-0.00848239
-0.00677087
-0.00510538
-0.00402175
-0.00372205
-0.00456115
-0.00594458
-0.00759206
-0.00924899
-0.0107438
-0.0119941
-0.0129703
-0.0136688
-0.0140939
-0.0142518
-0.0141504
-0.0137985
-0.0132075
-0.0123895
-0.0113564
-0.0101302
-0.00874958
-0.00745426
-0.00649044
-0.00518012
-0.0059719
-0.00724453
-0.00877314
-0.0103002
-0.0116673
-0.0128031
-0.0136849
-0.0143136
-0.0146959
-0.0148396
-0.0147532
-0.0144471
-0.0139362
-0.0132395
-0.0123746
-0.0113675
-0.0102512
-0.00926222
-0.00841002
-0.00631207
-0.00705213
-0.00820586
-0.00962293
-0.0110348
-0.0122986
-0.0133488
-0.0141647
-0.0147471
-0.0151029
-0.0152396
-0.0151649
-0.0148891
-0.0144292
-0.0138098
-0.0130572
-0.0122098
-0.0112765
-0.0105091
-0.0097577
-0.00703867
-0.00769655
-0.00876097
-0.0101013
-0.0114311
-0.0126297
-0.0136307
-0.0144116
-0.0149709
-0.0153142
-0.0154483
-0.0153797
-0.0151186
-0.0146827
-0.0141017
-0.013408
-0.0126717
-0.0118309
-0.0112471
-0.0105222
-0.00731846
-0.00789778
-0.00890592
-0.0101959
-0.011484
-0.0126581
-0.0136475
-0.0144239
-0.0149821
-0.0153259
-0.0154606
-0.0153921
-0.0151302
-0.0146934
-0.0141155
-0.0134286
-0.0127679
-0.0119115
-0.0115152
-0.0107065
-0.00714294
-0.0076796
-0.00864989
-0.00991537
-0.0111998
-0.0123851
-0.0133966
-0.0141975
-0.0147765
-0.0151338
-0.0152729
-0.0151988
-0.0149217
-0.0144604
-0.0138529
-0.0131494
-0.0124654
-0.0115633
-0.01136
-0.0102989
-0.00659034
-0.00710977
-0.00805226
-0.0092899
-0.010594
-0.0118176
-0.0128793
-0.0137314
-0.0143526
-0.0147374
-0.0148864
-0.0148027
-0.0144972
-0.0139902
-0.0133257
-0.0125598
-0.0117991
-0.0108551
-0.0107458
-0.00932435
-0.00578679
-0.00627394
-0.00717244
-0.0083648
-0.00968382
-0.010962
-0.0120983
-0.0130272
-0.0137133
-0.0141418
-0.014309
-0.0142152
-0.0138717
-0.0133007
-0.0125529
-0.0116848
-0.0108162
-0.00980418
-0.00966148
-0.0078519
-0.0048989
-0.00530974
-0.00610046
-0.0072065
-0.00851392
-0.00984916
-0.0110772
-0.0121053
-0.0128782
-0.0133683
-0.0135657
-0.0134669
-0.0130815
-0.0124334
-0.0115804
-0.0105754
-0.00956168
-0.00841025
-0.00812351
-0.00591864
-0.00410929
-0.00433774
-0.00490736
-0.00586258
-0.00712981
-0.00851908
-0.00985163
-0.0109989
-0.0118813
-0.0124542
-0.0126994
-0.0126099
-0.0121937
-0.0114676
-0.0104949
-0.00931752
-0.00809608
-0.0066934
-0.00611786
-0.00331932
-0.00358623
-0.00348186
-0.00370647
-0.00444656
-0.00564594
-0.00707954
-0.00852046
-0.00980002
-0.0108112
-0.0114886
-0.011804
-0.0117437
-0.0113208
-0.0105284
-0.00942797
-0.00803197
-0.00649215
-0.00464565
-0.00341548
0.000764974
-0.00333292
-0.00272895
-0.00254575
-0.00305284
-0.00417419
-0.00563913
-0.00718127
-0.00859974
-0.00975699
-0.0105629
-0.0109747
-0.010969
-0.0105575
-0.00972972
-0.00851147
-0.00684873
-0.00483949
-0.0021724
0.000582523
0.00813238
-0.00328429
-0.0020948
-0.00162722
-0.0019598
-0.00300844
-0.00449434
-0.00612371
-0.00766648
-0.00895606
-0.00988869
-0.0104063
-0.0104841
-0.0101062
-0.00925198
-0.00789644
-0.00594202
-0.00329357
0.000948644
0.00704309
0.0200629
-0.00382953
-0.00075469
-0.000173965
-0.000683755
-0.00178217
-0.00332153
-0.00506072
-0.00673341
-0.00815031
-0.00919092
-0.00979482
-0.00992572
-0.0095632
-0.0086807
-0.00723717
-0.00505936
-0.00129954
0.00554036
0.017468
0.0353856
)
;

boundaryField
{
    movingWall
    {
        type            zeroGradient;
    }
    fixedWalls
    {
        type            zeroGradient;
    }
    frontAndBack
    {
        type            empty;
    }
}


// ************************************************************************* //
