/*--------------------------------*- C++ -*----------------------------------*\
| =========                 |                                                 |
| \\      /  F ield         | OpenFOAM: The Open Source CFD Toolbox           |
|  \\    /   O peration     | Version:  5.0                                   |
|   \\  /    A nd           | Web:      www.OpenFOAM.org                      |
|    \\/     M anipulation  |                                                 |
\*---------------------------------------------------------------------------*/
FoamFile
{
    version     2.0;
    format      ascii;
    class       surfaceScalarField;
    location    "8";
    object      phi;
}
// * * * * * * * * * * * * * * * * * * * * * * * * * * * * * * * * * * * * * //

dimensions      [0 3 -1 0 0 0 0];

internalField   nonuniform List<scalar> 
760
(
1.23741e-07
-1.23746e-07
-1.31759e-07
2.55499e-07
-9.38166e-07
8.06407e-07
-2.22933e-06
1.29116e-06
-3.61446e-06
1.38513e-06
-4.8489e-06
1.23445e-06
-5.89343e-06
1.04453e-06
-6.7205e-06
8.27069e-07
-7.32675e-06
6.06245e-07
-7.72948e-06
4.02736e-07
-7.94204e-06
2.12558e-07
-7.95593e-06
1.38945e-08
-7.76444e-06
-1.91495e-07
-7.36719e-06
-3.97249e-07
-6.69783e-06
-6.69364e-07
-5.73065e-06
-9.67178e-07
-4.41133e-06
-1.31932e-06
-2.78235e-06
-1.62899e-06
-1.0653e-06
-1.71705e-06
-1.0653e-06
-3.74904e-07
2.51158e-07
-1.34897e-06
1.22957e-06
-2.69808e-06
2.15552e-06
-3.94419e-06
2.53726e-06
-5.00071e-06
2.44165e-06
-5.92964e-06
2.16338e-06
-6.68622e-06
1.80111e-06
-7.2795e-06
1.42035e-06
-7.72402e-06
1.05076e-06
-8.01395e-06
6.92665e-07
-8.13498e-06
3.33588e-07
-8.08362e-06
-3.74598e-08
-7.88107e-06
-3.94046e-07
-7.48561e-06
-7.92711e-07
-6.89284e-06
-1.26213e-06
-6.05604e-06
-1.80397e-06
-4.93736e-06
-2.438e-06
-3.47603e-06
-3.09031e-06
-1.70619e-06
-3.48688e-06
-2.77149e-06
-9.75301e-07
1.22646e-06
-2.27937e-06
2.53364e-06
-3.43709e-06
3.31324e-06
-4.39257e-06
3.49275e-06
-5.19825e-06
3.24733e-06
-5.86312e-06
2.82825e-06
-6.38413e-06
2.32212e-06
-6.75334e-06
1.78956e-06
-6.99021e-06
1.28763e-06
-7.09769e-06
8.00151e-07
-7.09875e-06
3.34647e-07
-7.0051e-06
-1.31115e-07
-6.79745e-06
-6.01695e-07
-6.46161e-06
-1.12855e-06
-5.9846e-06
-1.73915e-06
-5.33019e-06
-2.45838e-06
-4.46656e-06
-3.30163e-06
-3.32788e-06
-4.229e-06
-1.83569e-06
-4.97907e-06
-4.60719e-06
-1.20938e-06
2.43584e-06
-2.4068e-06
3.73106e-06
-3.37386e-06
4.2803e-06
-4.12014e-06
4.23902e-06
-4.70725e-06
3.83443e-06
-5.14986e-06
3.27086e-06
-5.46392e-06
2.63619e-06
-5.67668e-06
2.00232e-06
-5.79697e-06
1.40792e-06
-5.84044e-06
8.43626e-07
-5.80873e-06
3.02935e-07
-5.70446e-06
-2.35383e-07
-5.51473e-06
-7.91424e-07
-5.23811e-06
-1.40517e-06
-4.86442e-06
-2.11284e-06
-4.36881e-06
-2.95399e-06
-3.71564e-06
-3.9548e-06
-2.84567e-06
-5.09897e-06
-1.62833e-06
-6.19641e-06
-6.23552e-06
-1.14634e-06
3.58218e-06
-2.15817e-06
4.74289e-06
-2.93917e-06
5.0613e-06
-3.52195e-06
4.82181e-06
-3.94912e-06
4.2616e-06
-4.24704e-06
3.56878e-06
-4.44639e-06
2.83554e-06
-4.57304e-06
2.12896e-06
-4.63413e-06
1.46901e-06
-4.63769e-06
8.47186e-07
-4.58485e-06
2.50093e-07
-4.47637e-06
-3.43867e-07
-4.30842e-06
-9.59368e-07
-4.08242e-06
-1.63117e-06
-3.79455e-06
-2.40071e-06
-3.43021e-06
-3.31833e-06
-2.95374e-06
-4.43127e-06
-2.29748e-06
-5.75523e-06
-1.36078e-06
-7.13311e-06
-7.5963e-06
-9.44432e-07
4.52661e-06
-1.75162e-06
5.55008e-06
-2.36725e-06
5.67693e-06
-2.81363e-06
5.26818e-06
-3.12642e-06
4.57439e-06
-3.33553e-06
3.7779e-06
-3.47106e-06
2.97106e-06
-3.5513e-06
2.2092e-06
-3.58341e-06
1.50113e-06
-3.57186e-06
8.35632e-07
-3.51725e-06
1.9549e-07
-3.41907e-06
-4.42055e-07
-3.27644e-06
-1.102e-06
-3.09194e-06
-1.81568e-06
-2.8682e-06
-2.62445e-06
-2.6023e-06
-3.58423e-06
-2.27639e-06
-4.75719e-06
-1.82398e-06
-6.20764e-06
-1.09893e-06
-7.85816e-06
-8.69522e-06
-7.15463e-07
5.24208e-06
-1.31247e-06
6.14708e-06
-1.77054e-06
6.135e-06
-2.09905e-06
5.59669e-06
-2.32707e-06
4.80242e-06
-2.47906e-06
3.92988e-06
-2.57763e-06
3.06964e-06
-2.63544e-06
2.26701e-06
-2.6587e-06
1.52439e-06
-2.65002e-06
8.26952e-07
-2.60828e-06
1.53746e-07
-2.53139e-06
-5.18949e-07
-2.4182e-06
-1.21518e-06
-2.27193e-06
-1.96194e-06
-2.10006e-06
-2.79633e-06
-1.90762e-06
-3.77666e-06
-1.68608e-06
-4.97873e-06
-1.38149e-06
-6.51222e-06
-8.99405e-07
-8.34025e-06
-9.59463e-06
-4.64402e-07
5.70648e-06
-8.79544e-07
6.56222e-06
-1.19362e-06
6.44908e-06
-1.42108e-06
5.82415e-06
-1.58181e-06
4.96314e-06
-1.6926e-06
4.04068e-06
-1.76793e-06
3.14496e-06
-1.81547e-06
2.31456e-06
-1.83939e-06
1.54831e-06
-1.84064e-06
8.28199e-07
-1.8171e-06
1.30203e-07
-1.76607e-06
-5.69973e-07
-1.68623e-06
-1.29503e-06
-1.58054e-06
-2.06763e-06
-1.45887e-06
-2.918e-06
-1.33285e-06
-3.90268e-06
-1.1999e-06
-5.11168e-06
-1.01571e-06
-6.69641e-06
-6.95467e-07
-8.66049e-06
-1.02901e-05
-2.475e-07
5.95398e-06
-4.76302e-07
6.79102e-06
-6.5235e-07
6.62513e-06
-7.89182e-07
5.96098e-06
-8.90958e-07
5.06492e-06
-9.66958e-07
4.11668e-06
-1.0237e-06
3.2017e-06
-1.06417e-06
2.35502e-06
-1.0901e-06
1.57425e-06
-1.10136e-06
8.39459e-07
-1.09609e-06
1.24933e-07
-1.07212e-06
-5.93938e-07
-1.02851e-06
-1.33865e-06
-9.68028e-07
-2.1281e-06
-9.0063e-07
-2.9854e-06
-8.40697e-07
-3.96261e-06
-7.9078e-07
-5.1616e-06
-7.15053e-07
-6.77213e-06
-5.52645e-07
-8.8229e-06
-1.08427e-05
-2.31553e-08
5.97713e-06
-9.68246e-08
6.86469e-06
-1.53308e-07
6.68161e-06
-2.00175e-07
6.00785e-06
-2.42566e-07
5.10731e-06
-2.82516e-07
4.15662e-06
-3.1937e-07
3.23856e-06
-3.51164e-07
2.38682e-06
-3.77036e-07
1.60012e-06
-3.96379e-07
8.58802e-07
-4.0838e-07
1.36934e-07
-4.12051e-07
-5.90266e-07
-4.07325e-07
-1.34337e-06
-3.96738e-07
-2.13869e-06
-3.89587e-07
-2.99255e-06
-3.96499e-07
-3.9557e-06
-4.38998e-07
-5.1191e-06
-4.63084e-07
-6.74805e-06
-4.15585e-07
-8.8704e-06
-1.12583e-05
1.83963e-07
5.79317e-06
2.78967e-07
6.76969e-06
3.48719e-07
6.61186e-06
3.76689e-07
5.97988e-06
3.8809e-07
5.09591e-06
3.84211e-07
4.1605e-06
3.70006e-07
3.25276e-06
3.50144e-07
2.40668e-06
3.27126e-07
1.62314e-06
3.0158e-07
8.84349e-07
2.7309e-07
1.65424e-07
2.41141e-07
-5.58317e-07
2.04598e-07
-1.30683e-06
1.61071e-07
-2.09516e-06
1.03103e-07
-2.93458e-06
4.20496e-09
-3.8568e-06
-1.06441e-07
-5.00845e-06
-2.46923e-07
-6.60757e-06
-3.21136e-07
-8.79619e-06
-1.15795e-05
3.79758e-07
5.41341e-06
6.31158e-07
6.51829e-06
8.19172e-07
6.42385e-06
9.35573e-07
5.86348e-06
1.00949e-06
5.02199e-06
1.04966e-06
4.12034e-06
1.06485e-06
3.23757e-06
1.06217e-06
2.40936e-06
1.04549e-06
1.63982e-06
1.0156e-06
9.14238e-07
9.7087e-07
2.10151e-07
9.0927e-07
-4.96717e-07
8.27892e-07
-1.22545e-06
7.23924e-07
-1.99119e-06
5.90466e-07
-2.80112e-06
4.23049e-07
-3.68938e-06
1.99434e-07
-4.78484e-06
-6.44805e-08
-6.34365e-06
-2.16002e-07
-8.64467e-06
-1.17955e-05
5.70785e-07
4.84263e-06
9.73958e-07
6.11511e-06
1.27727e-06
6.12053e-06
1.48779e-06
5.65296e-06
1.63203e-06
4.87776e-06
1.72607e-06
4.02629e-06
1.77993e-06
3.18371e-06
1.80184e-06
2.38746e-06
1.79664e-06
1.64502e-06
1.76535e-06
9.45525e-07
1.70528e-06
2.70214e-07
1.61333e-06
-4.04761e-07
1.48481e-06
-1.09693e-06
1.31579e-06
-1.82217e-06
1.10232e-06
-2.58766e-06
8.39448e-07
-3.42651e-06
5.04024e-07
-4.44941e-06
1.44561e-07
-5.98419e-06
-9.24557e-08
-8.40765e-06
-1.18879e-05
7.33429e-07
4.1092e-06
1.27741e-06
5.57113e-06
1.69293e-06
5.70501e-06
2.01571e-06
5.33018e-06
2.24959e-06
4.64388e-06
2.41405e-06
3.86182e-06
2.52087e-06
3.07689e-06
2.57885e-06
2.32948e-06
2.59336e-06
1.6305e-06
2.56572e-06
9.7317e-07
2.49263e-06
3.43304e-07
2.36951e-06
-2.81646e-07
2.19143e-06
-9.18851e-07
1.95286e-06
-1.5836e-06
1.65038e-06
-2.28518e-06
1.28338e-06
-3.05951e-06
8.38553e-07
-4.00458e-06
3.87333e-07
-5.53297e-06
6.35097e-08
-8.08383e-06
-1.18244e-05
8.69635e-07
3.23956e-06
1.53489e-06
4.90588e-06
2.06923e-06
5.17067e-06
2.5147e-06
4.88471e-06
2.85696e-06
4.30161e-06
3.10953e-06
3.60926e-06
3.28496e-06
2.90146e-06
3.39235e-06
2.22209e-06
3.43695e-06
1.5859e-06
3.42042e-06
9.89704e-07
3.33901e-06
4.24712e-07
3.18543e-06
-1.28065e-07
2.95705e-06
-6.90472e-07
2.64623e-06
-1.27278e-06
2.24877e-06
-1.88771e-06
1.77262e-06
-2.58337e-06
1.20985e-06
-3.44181e-06
6.48302e-07
-4.97142e-06
2.01877e-07
-7.6374e-06
-1.16225e-05
8.77196e-07
2.36237e-06
1.64942e-06
4.13365e-06
2.32905e-06
4.49104e-06
2.92023e-06
4.29354e-06
3.40148e-06
3.82036e-06
3.77177e-06
3.23897e-06
4.04053e-06
2.6327e-06
4.2173e-06
2.04531e-06
4.30724e-06
1.49596e-06
4.31289e-06
9.84056e-07
4.23191e-06
5.05694e-07
4.05662e-06
4.72239e-08
3.78166e-06
-4.15514e-07
3.40291e-06
-8.94025e-07
2.91296e-06
-1.39777e-06
2.32986e-06
-2.00027e-06
1.64587e-06
-2.75782e-06
9.66518e-07
-4.29207e-06
3.97066e-07
-7.06795e-06
-1.12255e-05
7.8419e-07
1.57818e-06
1.63334e-06
3.2845e-06
2.47231e-06
3.65207e-06
3.22519e-06
3.54065e-06
3.86141e-06
3.18414e-06
4.37131e-06
2.72907e-06
4.75397e-06
2.25005e-06
5.01706e-06
1.78222e-06
5.16623e-06
1.34678e-06
5.20567e-06
9.4462e-07
5.13595e-06
5.75416e-07
4.95857e-06
2.246e-07
4.65487e-06
-1.11813e-07
4.23551e-06
-4.74667e-07
3.68142e-06
-8.43679e-07
3.01536e-06
-1.33421e-06
2.23346e-06
-1.97592e-06
1.43387e-06
-3.49247e-06
6.74709e-07
-6.30879e-06
-1.05508e-05
2.88819e-07
1.28936e-06
1.26303e-06
2.31029e-06
2.29144e-06
2.62367e-06
3.24976e-06
2.58234e-06
4.07673e-06
2.35716e-06
4.75531e-06
2.0505e-06
5.28319e-06
1.72217e-06
5.66384e-06
1.40157e-06
5.9059e-06
1.10472e-06
6.01666e-06
8.33867e-07
6.00168e-06
5.90391e-07
5.86891e-06
3.57371e-07
5.61591e-06
1.41187e-07
5.23832e-06
-9.70781e-08
4.70733e-06
-3.12688e-07
4.04805e-06
-6.74933e-07
3.23419e-06
-1.16206e-06
2.34504e-06
-2.60332e-06
1.20983e-06
-5.17358e-06
-9.34093e-06
-5.36635e-07
1.82599e-06
5.3739e-07
1.23626e-06
1.87411e-06
1.28695e-06
3.10892e-06
1.34752e-06
4.17652e-06
1.28957e-06
5.07294e-06
1.15408e-06
5.80123e-06
9.93878e-07
6.35832e-06
8.44481e-07
6.76334e-06
6.99706e-07
7.02263e-06
5.74577e-07
7.15921e-06
4.53811e-07
7.16817e-06
3.4841e-07
7.06585e-06
2.43501e-07
6.83122e-06
1.37555e-07
6.49034e-06
2.81879e-08
6.02324e-06
-2.07833e-07
5.37336e-06
-5.12181e-07
4.46008e-06
-1.69004e-06
2.63335e-06
-3.34685e-06
-6.70758e-06
1.82599e-06
3.06226e-06
4.34921e-06
5.69673e-06
6.9863e-06
8.14037e-06
9.13425e-06
9.97873e-06
1.06784e-05
1.1253e-05
1.17068e-05
1.20552e-05
1.22987e-05
1.24363e-05
1.24645e-05
1.22566e-05
1.17445e-05
1.00544e-05
6.70758e-06
)
;

boundaryField
{
    movingWall
    {
        type            calculated;
        value           uniform 0;
    }
    fixedWalls
    {
        type            calculated;
        value           uniform 0;
    }
    frontAndBack
    {
        type            empty;
        value           nonuniform 0();
    }
}


// ************************************************************************* //
