/*--------------------------------*- C++ -*----------------------------------*\
| =========                 |                                                 |
| \\      /  F ield         | OpenFOAM: The Open Source CFD Toolbox           |
|  \\    /   O peration     | Version:  5.0                                   |
|   \\  /    A nd           | Web:      www.OpenFOAM.org                      |
|    \\/     M anipulation  |                                                 |
\*---------------------------------------------------------------------------*/
FoamFile
{
    version     2.0;
    format      ascii;
    class       volVectorField;
    location    "8";
    object      U;
}
// * * * * * * * * * * * * * * * * * * * * * * * * * * * * * * * * * * * * * //

dimensions      [0 1 -1 0 0 0 0];

internalField   nonuniform List<vector> 
400
(
(0.00248527 -0.00299686 0)
(0.00202363 -0.00051746 0)
(-0.00668666 0.0037616 0)
(-0.0281422 0.0109408 0)
(-0.0613063 0.014232 0)
(-0.0872823 0.0122007 0)
(-0.110805 0.0105027 0)
(-0.12847 0.00811478 0)
(-0.142584 0.00618841 0)
(-0.152148 0.00395428 0)
(-0.157839 0.00219486 0)
(-0.160036 0.000305288 0)
(-0.158659 -0.00278333 0)
(-0.151904 -0.00489835 0)
(-0.140807 -0.00822731 0)
(-0.123301 -0.0111738 0)
(-0.10002 -0.0145918 0)
(-0.0704432 -0.0165752 0)
(-0.0377273 -0.0150093 0)
(-0.00903053 -0.00416719 0)
(-0.00199613 -0.00204652 0)
(-0.0127186 0.011666 0)
(-0.0389221 0.0304926 0)
(-0.0673627 0.0401988 0)
(-0.0918027 0.0390626 0)
(-0.111634 0.0349377 0)
(-0.128493 0.0293987 0)
(-0.140851 0.0236437 0)
(-0.151495 0.0170519 0)
(-0.158427 0.0112602 0)
(-0.162623 0.00554473 0)
(-0.16327 -6.52359e-05 0)
(-0.160628 -0.00625842 0)
(-0.154448 -0.0130974 0)
(-0.14426 -0.021399 0)
(-0.12921 -0.0308424 0)
(-0.109041 -0.0416519 0)
(-0.0834042 -0.051361 0)
(-0.0520483 -0.0541354 0)
(-0.0191751 -0.0355144 0)
(-0.00806925 0.0135847 0)
(-0.031636 0.0396946 0)
(-0.0578657 0.0561395 0)
(-0.0800229 0.0606328 0)
(-0.0978348 0.0568033 0)
(-0.11227 0.0495712 0)
(-0.123825 0.0406626 0)
(-0.132558 0.0313424 0)
(-0.138565 0.0230165 0)
(-0.141534 0.0146603 0)
(-0.14262 0.00646508 0)
(-0.141531 -0.00189264 0)
(-0.138796 -0.0106128 0)
(-0.133181 -0.0202091 0)
(-0.124971 -0.0313637 0)
(-0.113258 -0.044523 0)
(-0.0975731 -0.0600056 0)
(-0.0773544 -0.0768882 0)
(-0.0509783 -0.0892815 0)
(-0.0218631 -0.0780143 0)
(-0.0121522 0.0371927 0)
(-0.0372467 0.0634149 0)
(-0.0599059 0.076222 0)
(-0.0768631 0.0771913 0)
(-0.0898865 0.0707506 0)
(-0.0998754 0.060977 0)
(-0.10713 0.0495979 0)
(-0.112204 0.0380155 0)
(-0.115247 0.0269436 0)
(-0.116822 0.0163162 0)
(-0.116942 0.00621898 0)
(-0.115574 -0.00388517 0)
(-0.112669 -0.014447 0)
(-0.107954 -0.02614 0)
(-0.101408 -0.0396317 0)
(-0.09261 -0.0556066 0)
(-0.0808349 -0.0744497 0)
(-0.0651589 -0.095553 0)
(-0.043628 -0.114558 0)
(-0.0198353 -0.112518 0)
(-0.0123061 0.0595282 0)
(-0.0350951 0.0843607 0)
(-0.0532415 0.0930452 0)
(-0.0664322 0.090482 0)
(-0.0760913 0.0810667 0)
(-0.0829354 0.0686082 0)
(-0.0875579 0.0549414 0)
(-0.0906386 0.0414953 0)
(-0.0923969 0.0288257 0)
(-0.0930286 0.0168885 0)
(-0.0925302 0.00547529 0)
(-0.090915 -0.00589829 0)
(-0.0881541 -0.0177141 0)
(-0.084189 -0.0307002 0)
(-0.0790101 -0.0456762 0)
(-0.072485 -0.0635802 0)
(-0.0640576 -0.0852169 0)
(-0.0523242 -0.110592 0)
(-0.0352819 -0.135956 0)
(-0.0174637 -0.141508 0)
(-0.0104095 0.0800817 0)
(-0.0290714 0.102363 0)
(-0.0432118 0.107065 0)
(-0.0534439 0.100885 0)
(-0.060532 0.0885035 0)
(-0.0653217 0.073655 0)
(-0.0684599 0.0582342 0)
(-0.0705024 0.0435003 0)
(-0.0715681 0.0297616 0)
(-0.0717545 0.0168335 0)
(-0.0710909 0.00440916 0)
(-0.0695649 -0.00794823 0)
(-0.0671549 -0.0207337 0)
(-0.0638617 -0.0346253 0)
(-0.0597377 -0.0504764 0)
(-0.0548099 -0.0693648 0)
(-0.0488955 -0.0924424 0)
(-0.0405766 -0.120553 0)
(-0.0295605 -0.151754 0)
(-0.0118788 -0.165065 0)
(-0.00849118 0.0971293 0)
(-0.0218363 0.11667 0)
(-0.0325206 0.118047 0)
(-0.0400701 0.108726 0)
(-0.045152 0.0939023 0)
(-0.0485722 0.077214 0)
(-0.0508279 0.0605235 0)
(-0.0523038 0.0448442 0)
(-0.0530765 0.0302896 0)
(-0.0532169 0.0166049 0)
(-0.05272 0.00341496 0)
(-0.0515381 -0.0097368 0)
(-0.0496275 -0.0233365 0)
(-0.0470066 -0.0379691 0)
(-0.0437767 -0.0544428 0)
(-0.0400597 -0.0739235 0)
(-0.0359658 -0.0977861 0)
(-0.0300535 -0.127895 0)
(-0.0237562 -0.163129 0)
(-0.00953707 -0.1844 0)
(-0.00556888 0.109542 0)
(-0.0144726 0.127331 0)
(-0.0221007 0.126127 0)
(-0.0272229 0.114435 0)
(-0.0307016 0.0978401 0)
(-0.0331104 0.079844 0)
(-0.0347745 0.0622432 0)
(-0.0359334 0.0458696 0)
(-0.0366253 0.030732 0)
(-0.0368835 0.0165045 0)
(-0.036673 0.00273861 0)
(-0.0359286 -0.0110414 0)
(-0.0345994 -0.0252972 0)
(-0.0327071 -0.0405197 0)
(-0.0303788 -0.0573905 0)
(-0.0277827 -0.0770871 0)
(-0.0252956 -0.101242 0)
(-0.0214136 -0.132572 0)
(-0.0191367 -0.170643 0)
(-0.00607655 -0.199711 0)
(-0.00339231 0.11729 0)
(-0.00765955 0.133926 0)
(-0.0122664 0.131141 0)
(-0.0151675 0.118161 0)
(-0.0172704 0.100499 0)
(-0.0188318 0.081717 0)
(-0.0200098 0.063552 0)
(-0.0209275 0.0467311 0)
(-0.021579 0.0312148 0)
(-0.0219612 0.0166196 0)
(-0.0220313 0.00244526 0)
(-0.0217334 -0.0117989 0)
(-0.0210274 -0.0265478 0)
(-0.0199335 -0.0422105 0)
(-0.0185982 -0.0593174 0)
(-0.0171557 -0.078989 0)
(-0.0164066 -0.103117 0)
(-0.0140162 -0.135232 0)
(-0.0154039 -0.17534 0)
(-0.00429647 -0.212057 0)
(-2.07321e-05 0.12029 0)
(-0.00123043 0.137603 0)
(-0.00307991 0.133823 0)
(-0.00385212 0.120163 0)
(-0.00466552 0.102053 0)
(-0.00538948 0.0829309 0)
(-0.00606767 0.0645063 0)
(-0.00671462 0.0474572 0)
(-0.00728356 0.0317347 0)
(-0.00774353 0.0169296 0)
(-0.00805971 0.00251814 0)
(-0.00820261 -0.011999 0)
(-0.00815792 -0.0270366 0)
(-0.00794243 -0.0429377 0)
(-0.00771805 -0.0600918 0)
(-0.00747273 -0.0795014 0)
(-0.00874145 -0.103239 0)
(-0.00752802 -0.135666 0)
(-0.012412 -0.177254 0)
(-0.00187194 -0.221603 0)
(0.002145 0.118713 0)
(0.00460223 0.137315 0)
(0.00584524 0.133553 0)
(0.00700619 0.120237 0)
(0.00746474 0.102297 0)
(0.00763658 0.0833443 0)
(0.00753296 0.065014 0)
(0.00722897 0.0479808 0)
(0.00680932 0.0322337 0)
(0.00632147 0.0173896 0)
(0.00578729 0.00293301 0)
(0.0052069 -0.0116352 0)
(0.00455701 -0.0267162 0)
(0.0038196 -0.0426155 0)
(0.00279814 -0.0595957 0)
(0.00173861 -0.0784944 0)
(-0.00170228 -0.101763 0)
(-0.00150869 -0.133926 0)
(-0.0101477 -0.177183 0)
(-0.000171385 -0.228914 0)
(0.00412949 0.114015 0)
(0.0103489 0.134323 0)
(0.0140099 0.131494 0)
(0.0173326 0.119239 0)
(0.0193064 0.101675 0)
(0.0205341 0.0831344 0)
(0.0211675 0.0651075 0)
(0.0213348 0.0482757 0)
(0.0211561 0.0326782 0)
(0.0206965 0.0179777 0)
(0.0199672 0.00368924 0)
(0.0189465 -0.0106796 0)
(0.017565 -0.0255252 0)
(0.0158146 -0.0411405 0)
(0.0134742 -0.0576953 0)
(0.0107772 -0.0758566 0)
(0.00517603 -0.0983185 0)
(0.00446212 -0.129887 0)
(-0.00837697 -0.174944 0)
(0.00242777 -0.233882 0)
(0.00630341 0.104637 0)
(0.0156783 0.127499 0)
(0.0222381 0.126015 0)
(0.0273668 0.115709 0)
(0.0310984 0.0993591 0)
(0.0335523 0.0817352 0)
(0.0351068 0.0644167 0)
(0.0359167 0.0481128 0)
(0.0361103 0.0329374 0)
(0.0357635 0.018632 0)
(0.0348772 0.00477423 0)
(0.033422 -0.00910365 0)
(0.0312699 -0.0233805 0)
(0.0284452 -0.0383721 0)
(0.0245822 -0.054203 0)
(0.020181 -0.0715266 0)
(0.0124006 -0.0927291 0)
(0.0103522 -0.123732 0)
(-0.0068803 -0.170937 0)
(0.00535051 -0.236876 0)
(0.00812456 0.0918211 0)
(0.0203972 0.118996 0)
(0.0295997 0.119766 0)
(0.0367905 0.11103 0)
(0.0425573 0.0961548 0)
(0.0466179 0.0795841 0)
(0.0494102 0.0631345 0)
(0.0511295 0.0475563 0)
(0.0518993 0.0330244 0)
(0.0518031 0.0193546 0)
(0.050832 0.00619928 0)
(0.0489651 -0.00688038 0)
(0.0459959 -0.0202289 0)
(0.042046 -0.034205 0)
(0.036482 -0.048963 0)
(0.0303212 -0.0651549 0)
(0.020139 -0.0849158 0)
(0.0165443 -0.115638 0)
(-0.00501429 -0.165245 0)
(0.00960133 -0.238019 0)
(0.00976538 0.0753539 0)
(0.0245282 0.10561 0)
(0.0360814 0.109277 0)
(0.0455958 0.102663 0)
(0.0535606 0.0900264 0)
(0.0596151 0.0752394 0)
(0.0640024 0.0602438 0)
(0.0669338 0.0459015 0)
(0.0685242 0.0324731 0)
(0.068867 0.0198593 0)
(0.0679243 0.00780658 0)
(0.0657145 -0.00408452 0)
(0.0619022 -0.0160647 0)
(0.0568297 -0.0285776 0)
(0.049421 -0.0418265 0)
(0.041492 -0.0566125 0)
(0.028565 -0.0748274 0)
(0.0234028 -0.105543 0)
(-0.00271929 -0.158234 0)
(0.0147066 -0.237965 0)
(0.0097668 0.0567144 0)
(0.0264366 0.092494 0)
(0.0401145 0.0989299 0)
(0.0522184 0.0938897 0)
(0.0629459 0.083086 0)
(0.0716249 0.0700446 0)
(0.0781746 0.0566154 0)
(0.0827737 0.0437019 0)
(0.0855334 0.0316258 0)
(0.0865977 0.0203462 0)
(0.0858573 0.00971156 0)
(0.0834918 -0.000660888 0)
(0.0789121 -0.0108805 0)
(0.0728638 -0.0215169 0)
(0.0635841 -0.032794 0)
(0.054056 -0.0458844 0)
(0.0381931 -0.0623183 0)
(0.0316618 -0.0933864 0)
(0.000405067 -0.14908 0)
(0.0214752 -0.235789 0)
(0.00818318 0.0378728 0)
(0.0255468 0.0725562 0)
(0.0415566 0.0813944 0)
(0.0566072 0.0788793 0)
(0.0704037 0.0707853 0)
(0.0821269 0.0604575 0)
(0.0912858 0.0494954 0)
(0.0979442 0.0388314 0)
(0.102162 0.0288865 0)
(0.104232 0.0196556 0)
(0.103873 0.0110855 0)
(0.101681 0.0028112 0)
(0.0965987 -0.00520873 0)
(0.0901195 -0.0135176 0)
(0.0794046 -0.0222385 0)
(0.068994 -0.033236 0)
(0.05045 -0.0473405 0)
(0.0431181 -0.0790008 0)
(0.00565055 -0.13791 0)
(0.0306364 -0.228271 0)
(-0.00284077 0.0242366 0)
(0.0167179 0.0591941 0)
(0.0358094 0.0669088 0)
(0.0549462 0.0652256 0)
(0.0727445 0.0589175 0)
(0.088081 0.0508903 0)
(0.100371 0.0425079 0)
(0.109713 0.0342173 0)
(0.116009 0.0264723 0)
(0.11982 0.0193715 0)
(0.120619 0.0129409 0)
(0.119559 0.00691092 0)
(0.115097 0.00129952 0)
(0.109782 -0.00457736 0)
(0.0992622 -0.0105959 0)
(0.089847 -0.0190353 0)
(0.0699219 -0.0306414 0)
(0.0627345 -0.0622025 0)
(0.0186184 -0.121626 0)
(0.0461874 -0.205746 0)
(-0.0149102 0.0298752 0)
(-0.00237939 0.0281749 0)
(0.0244323 0.0332818 0)
(0.0497338 0.0348024 0)
(0.072472 0.03285 0)
(0.0922398 0.0289388 0)
(0.108682 0.0244689 0)
(0.121822 0.0201445 0)
(0.131497 0.0161679 0)
(0.138446 0.0125019 0)
(0.142203 0.00927051 0)
(0.143998 0.0060855 0)
(0.142522 0.00341126 0)
(0.139883 -0.000104207 0)
(0.132542 -0.00307675 0)
(0.126348 -0.00916659 0)
(0.109506 -0.0182228 0)
(0.103774 -0.0458481 0)
(0.0580101 -0.0934601 0)
(0.0778607 -0.156918 0)
(0.0397099 0.0380766 0)
(0.0458046 0.0273672 0)
(0.0699674 0.0243772 0)
(0.0998112 0.0244447 0)
(0.126129 0.0236043 0)
(0.150293 0.0217087 0)
(0.171847 0.0192433 0)
(0.19074 0.0170614 0)
(0.206418 0.014746 0)
(0.219604 0.0129998 0)
(0.229788 0.011035 0)
(0.238054 0.00972948 0)
(0.243585 0.00793082 0)
(0.247522 0.00686616 0)
(0.248738 0.00479161 0)
(0.246632 0.00232376 0)
(0.23808 0.0018577 0)
(0.223046 -0.00994207 0)
(0.173473 -0.0131225 0)
(0.146106 -0.0643911 0)
)
;

boundaryField
{
    movingWall
    {
        type            fixedValue;
        value           uniform (1 0 0);
    }
    fixedWalls
    {
        type            noSlip;
    }
    frontAndBack
    {
        type            empty;
    }
}


// ************************************************************************* //
