/*--------------------------------*- C++ -*----------------------------------*\
| =========                 |                                                 |
| \\      /  F ield         | OpenFOAM: The Open Source CFD Toolbox           |
|  \\    /   O peration     | Version:  5.0                                   |
|   \\  /    A nd           | Web:      www.OpenFOAM.org                      |
|    \\/     M anipulation  |                                                 |
\*---------------------------------------------------------------------------*/
FoamFile
{
    version     2.0;
    format      ascii;
    class       volVectorField;
    location    "0.1";
    object      wallShearStress;
}
// * * * * * * * * * * * * * * * * * * * * * * * * * * * * * * * * * * * * * //

dimensions      [0 2 -2 0 0 0 0];

internalField   uniform (0 0 0);

boundaryField
{
    movingWall
    {
        type            calculated;
        value           nonuniform List<vector> 
20
(
(3.07516 -1.24312 0)
(2.34484 -0.851911 0)
(1.68651 -0.591232 0)
(1.25165 -0.357371 0)
(0.996307 -0.211311 0)
(0.83564 -0.128819 0)
(0.729205 -0.0801449 0)
(0.659106 -0.0491677 0)
(0.615377 -0.0276625 0)
(0.592359 -0.010954 0)
(0.587348 0.00395644 0)
(0.599939 0.0195044 0)
(0.631966 0.0385044 0)
(0.688234 0.0653859 0)
(0.778116 0.10835 0)
(0.919323 0.184602 0)
(1.15302 0.329137 0)
(1.57576 0.576256 0)
(2.2599 0.865324 0)
(3.04204 1.28027 0)
)
;
    }
    fixedWalls
    {
        type            calculated;
        value           nonuniform List<vector> 
60
(
(-0.00160262 0.000809442 0)
(0.00128523 0.00142924 0)
(0.0051615 -0.00345936 0)
(0.00866515 -0.0129491 0)
(0.0118033 -0.0263963 0)
(0.0147884 -0.0435251 0)
(0.0178274 -0.0643014 0)
(0.0211069 -0.0888854 0)
(0.0248154 -0.117603 0)
(0.0292021 -0.150948 0)
(0.0346854 -0.189645 0)
(0.0420459 -0.234821 0)
(0.0527587 -0.288369 0)
(0.0694979 -0.353633 0)
(0.0967095 -0.436622 0)
(0.140493 -0.548652 0)
(0.201532 -0.714656 0)
(0.22494 -0.990278 0)
(-0.105191 -1.45677 0)
(-1.88324 -2.27669 0)
(-0.0017242 -0.000811101 0)
(0.00102751 -0.00162129 0)
(0.00478217 0.00294798 0)
(0.00818593 0.0120158 0)
(0.0112833 0.0249841 0)
(0.0143523 0.0416847 0)
(0.0176852 0.0622802 0)
(0.0215682 0.0872292 0)
(0.0263016 0.117267 0)
(0.0322552 0.153411 0)
(0.0399678 0.197014 0)
(0.0503248 0.249904 0)
(0.0648501 0.314694 0)
(0.0860919 0.395339 0)
(0.117868 0.498087 0)
(0.164239 0.633751 0)
(0.219472 0.825257 0)
(0.21301 1.11663 0)
(-0.176987 1.53724 0)
(-1.94669 2.27064 0)
(-0.00086257 0.00156771 0)
(-0.00135287 -0.0015366 0)
(0.00388863 -0.00535557 0)
(0.0132548 -0.00806787 0)
(0.0249562 -0.0094218 0)
(0.0373816 -0.00952517 0)
(0.049129 -0.008577 0)
(0.0590487 -0.00680008 0)
(0.0662564 -0.00441425 0)
(0.0701325 -0.00163489 0)
(0.0703242 0.00131694 0)
(0.0667632 0.00420366 0)
(0.05969 0.00676519 0)
(0.0496776 0.00871986 0)
(0.0376517 0.00977689 0)
(0.024881 0.00966559 0)
(0.0129227 0.00818739 0)
(0.003509 0.0053002 0)
(-0.00157094 0.0013776 0)
(-0.000886385 -0.00167786 0)
)
;
    }
    frontAndBack
    {
        type            empty;
    }
}


// ************************************************************************* //
