/*--------------------------------*- C++ -*----------------------------------*\
| =========                 |                                                 |
| \\      /  F ield         | OpenFOAM: The Open Source CFD Toolbox           |
|  \\    /   O peration     | Version:  5.0                                   |
|   \\  /    A nd           | Web:      www.OpenFOAM.org                      |
|    \\/     M anipulation  |                                                 |
\*---------------------------------------------------------------------------*/
FoamFile
{
    version     2.0;
    format      ascii;
    class       volScalarField;
    location    "8";
    object      p;
}
// * * * * * * * * * * * * * * * * * * * * * * * * * * * * * * * * * * * * * //

dimensions      [0 2 -2 0 0 0 0];

internalField   nonuniform List<scalar> 
400
(
5.1925e-08
-0.000108079
-0.00030258
-0.000192916
-0.000912276
-0.00268427
-0.00486081
-0.0068636
-0.00848002
-0.00958056
-0.0101272
-0.0100656
-0.00935988
-0.00784671
-0.0054259
-0.00206794
0.00209224
0.00645037
0.00953614
0.010858
4.72234e-05
-4.98191e-05
-0.000274606
-0.000912052
-0.00219312
-0.004063
-0.0060206
-0.00788604
-0.00936802
-0.0103888
-0.0108972
-0.0108711
-0.0102558
-0.00896265
-0.00689269
-0.00399878
-0.000292073
0.00388555
0.00743048
0.0095302
0.000377032
-5.06383e-05
-0.000889155
-0.00227057
-0.00414675
-0.00614143
-0.008059
-0.0097676
-0.0110156
-0.0118239
-0.0121758
-0.0120662
-0.0114585
-0.010347
-0.00868139
-0.00642321
-0.00349676
8.96597e-05
0.00363762
0.00608969
0.000231367
-0.000528491
-0.00204312
-0.0041393
-0.00640548
-0.00847842
-0.0101757
-0.0114299
-0.0123218
-0.0128752
-0.01308
-0.0129484
-0.0124468
-0.0115454
-0.0102196
-0.00847227
-0.0062762
-0.00346733
-0.000395193
0.00190352
-0.000685657
-0.00170934
-0.00374832
-0.00623032
-0.00853004
-0.0103718
-0.0117356
-0.0126881
-0.0133417
-0.0137389
-0.0138822
-0.0137641
-0.0133519
-0.0126207
-0.0115538
-0.0101631
-0.00851938
-0.00640454
-0.00411044
-0.00204231
-0.00235726
-0.00348658
-0.00569907
-0.00816451
-0.0102502
-0.0117661
-0.0128221
-0.0135682
-0.0140707
-0.014375
-0.014488
-0.0143976
-0.0140794
-0.0135032
-0.0126674
-0.0115489
-0.0102961
-0.00871733
-0.00707434
-0.00535739
-0.00430383
-0.00540054
-0.00749504
-0.00976265
-0.0115493
-0.0127262
-0.0135481
-0.0141427
-0.0145479
-0.0148008
-0.014912
-0.0148612
-0.0146312
-0.0141878
-0.0135422
-0.0126366
-0.0116712
-0.0104753
-0.00933088
-0.00795381
-0.00606805
-0.00705506
-0.00891592
-0.0109423
-0.0124272
-0.0133228
-0.0139822
-0.0144738
-0.0148235
-0.015055
-0.0151794
-0.0151743
-0.0150246
-0.0146876
-0.0141889
-0.0134349
-0.0126953
-0.0117322
-0.0109452
-0.00987385
-0.0073504
-0.00823771
-0.00987294
-0.0116699
-0.0129314
-0.0136478
-0.0141999
-0.0146264
-0.0149485
-0.0151773
-0.0153197
-0.0153531
-0.015269
-0.0150096
-0.0146222
-0.0139469
-0.0134153
-0.0125192
-0.0120537
-0.0111702
-0.00806897
-0.00886798
-0.0103362
-0.0119778
-0.0131126
-0.0137495
-0.0142496
-0.0146439
-0.0149623
-0.0152032
-0.0153736
-0.0154369
-0.0153937
-0.0151709
-0.0148542
-0.0141813
-0.0138299
-0.0128498
-0.0127102
-0.011882
-0.0081936
-0.0089485
-0.0103315
-0.0119073
-0.013018
-0.0136798
-0.0141686
-0.0145605
-0.0148871
-0.0151473
-0.0153404
-0.0154244
-0.0153899
-0.0151689
-0.01485
-0.0141668
-0.0138734
-0.0127618
-0.012936
-0.0119993
-0.00776808
-0.00853007
-0.00989421
-0.011511
-0.0127002
-0.013442
-0.0139544
-0.0143641
-0.0147104
-0.0149905
-0.0151964
-0.0152811
-0.0152259
-0.0149781
-0.0145825
-0.013898
-0.0134996
-0.01231
-0.0126791
-0.0115287
-0.00691221
-0.00774826
-0.00913084
-0.0107879
-0.0121442
-0.0130128
-0.0135917
-0.0140405
-0.0144126
-0.0147065
-0.0149122
-0.0149744
-0.0148699
-0.0145601
-0.0140594
-0.0133357
-0.0127461
-0.0115226
-0.0119536
-0.0104896
-0.00593241
-0.00679774
-0.0081453
-0.00972967
-0.011264
-0.012329
-0.0130413
-0.0135648
-0.0139757
-0.0142818
-0.0144753
-0.0145018
-0.0143328
-0.0139351
-0.0133202
-0.012503
-0.0116726
-0.0104167
-0.01078
-0.00892359
-0.00508222
-0.00585249
-0.00702624
-0.00842159
-0.00999446
-0.0113024
-0.0122538
-0.0129166
-0.0133986
-0.0137259
-0.0139012
-0.0138849
-0.0136453
-0.0131457
-0.0123977
-0.0114237
-0.0103407
-0.00901361
-0.00923358
-0.00688708
-0.0047208
-0.00510168
-0.00580152
-0.00687289
-0.00835224
-0.00988008
-0.0111279
-0.012035
-0.0126637
-0.0130608
-0.0132405
-0.0131818
-0.0128668
-0.0122541
-0.0113447
-0.0101657
-0.00883542
-0.00737389
-0.00732433
-0.00439622
-0.00476573
-0.00460372
-0.00452118
-0.00513011
-0.00644578
-0.00808587
-0.00962944
-0.0108468
-0.0117142
-0.0122625
-0.0125164
-0.0124622
-0.0120663
-0.0113253
-0.0102355
-0.00881249
-0.00718822
-0.00553766
-0.00505811
-0.00130943
-0.00458763
-0.00392523
-0.0031447
-0.00331098
-0.00446153
-0.00615506
-0.00791957
-0.00940602
-0.010533
-0.0112702
-0.0116247
-0.0115936
-0.0111802
-0.0103516
-0.00910916
-0.00745974
-0.00555174
-0.00353729
-0.00196682
0.00386338
-0.00397115
-0.00301308
-0.00191785
-0.00187811
-0.00289948
-0.00460035
-0.00649892
-0.00821052
-0.00954929
-0.0104599
-0.0109263
-0.0109605
-0.0105513
-0.00967652
-0.00834136
-0.00651674
-0.00419021
-0.00110796
0.00417376
0.0167041
-0.00534513
-0.00214199
-0.000883998
-0.00097356
-0.00191583
-0.00359298
-0.00555807
-0.00746452
-0.00897667
-0.010021
-0.0105728
-0.0106695
-0.0103054
-0.00948502
-0.008111
-0.00608001
-0.00259786
0.00433779
0.0184315
0.0411911
)
;

boundaryField
{
    movingWall
    {
        type            zeroGradient;
    }
    fixedWalls
    {
        type            zeroGradient;
    }
    frontAndBack
    {
        type            empty;
    }
}


// ************************************************************************* //
