/*--------------------------------*- C++ -*----------------------------------*\
| =========                 |                                                 |
| \\      /  F ield         | OpenFOAM: The Open Source CFD Toolbox           |
|  \\    /   O peration     | Version:  5.0                                   |
|   \\  /    A nd           | Web:      www.OpenFOAM.org                      |
|    \\/     M anipulation  |                                                 |
\*---------------------------------------------------------------------------*/
FoamFile
{
    version     2.0;
    format      ascii;
    class       surfaceScalarField;
    location    "8";
    object      phi;
}
// * * * * * * * * * * * * * * * * * * * * * * * * * * * * * * * * * * * * * //

dimensions      [0 3 -1 0 0 0 0];

internalField   nonuniform List<scalar> 
760
(
2.90511e-07
-2.90517e-07
1.86921e-07
1.0359e-07
-5.34715e-07
7.21637e-07
-2.07972e-06
1.545e-06
-3.89912e-06
1.8194e-06
-5.42166e-06
1.52253e-06
-6.70512e-06
1.28347e-06
-7.61699e-06
9.11871e-07
-8.3268e-06
7.09811e-07
-8.77441e-06
4.4761e-07
-9.06319e-06
2.88776e-07
-9.12363e-06
6.04416e-08
-9.0262e-06
-9.74341e-08
-8.70908e-06
-3.17122e-07
-8.17415e-06
-5.3492e-07
-7.27068e-06
-9.03479e-07
-5.92579e-06
-1.34488e-06
-3.97162e-06
-1.95417e-06
-1.63229e-06
-2.33933e-06
-1.63229e-06
-3.15669e-07
2.51526e-08
-1.3421e-06
1.13002e-06
-3.05616e-06
2.4357e-06
-4.71786e-06
3.20671e-06
-5.89708e-06
2.99863e-06
-6.96043e-06
2.58588e-06
-7.7282e-06
2.05123e-06
-8.38193e-06
1.5656e-06
-8.80477e-06
1.13265e-06
-9.06655e-06
7.09394e-07
-9.13391e-06
3.56135e-07
-9.04664e-06
-2.68344e-08
-8.83575e-06
-3.08318e-07
-8.48959e-06
-6.63287e-07
-7.94578e-06
-1.07873e-06
-7.20149e-06
-1.64778e-06
-6.0989e-06
-2.44747e-06
-4.51766e-06
-3.53541e-06
-2.32039e-06
-4.5366e-06
-3.95268e-06
-1.06459e-06
1.08974e-06
-2.64341e-06
2.70884e-06
-4.14237e-06
3.93466e-06
-5.26087e-06
4.32521e-06
-6.08898e-06
3.82674e-06
-6.71881e-06
3.2157e-06
-7.06773e-06
2.40016e-06
-7.26543e-06
1.7633e-06
-7.24301e-06
1.11022e-06
-7.18714e-06
6.53532e-07
-7.06649e-06
2.3548e-07
-6.97497e-06
-1.18354e-07
-6.74665e-06
-5.36637e-07
-6.45389e-06
-9.56053e-07
-6.01763e-06
-1.51498e-06
-5.47813e-06
-2.18728e-06
-4.80521e-06
-3.12039e-06
-3.83218e-06
-4.50844e-06
-2.27709e-06
-6.09169e-06
-6.22977e-06
-1.37815e-06
2.46789e-06
-2.92216e-06
4.25285e-06
-4.14622e-06
5.15872e-06
-4.89922e-06
5.07821e-06
-5.33947e-06
4.26699e-06
-5.48348e-06
3.35972e-06
-5.45786e-06
2.37453e-06
-5.40578e-06
1.71123e-06
-5.37635e-06
1.08079e-06
-5.36089e-06
6.3807e-07
-5.29059e-06
1.65187e-07
-5.18289e-06
-2.26052e-07
-5.02413e-06
-6.95406e-07
-4.79167e-06
-1.18851e-06
-4.45364e-06
-1.85301e-06
-3.98757e-06
-2.65335e-06
-3.45087e-06
-3.65708e-06
-2.79888e-06
-5.16043e-06
-1.75535e-06
-7.13523e-06
-7.98511e-06
-1.38233e-06
3.85022e-06
-2.66324e-06
5.53376e-06
-3.50893e-06
6.0044e-06
-3.97168e-06
5.54096e-06
-4.11469e-06
4.41e-06
-4.07737e-06
3.3224e-06
-4.04272e-06
2.33988e-06
-4.02806e-06
1.69657e-06
-4.00961e-06
1.06234e-06
-3.99428e-06
6.22738e-07
-3.96026e-06
1.31172e-07
-3.89006e-06
-2.96254e-07
-3.75981e-06
-8.25659e-07
-3.56424e-06
-1.38408e-06
-3.31349e-06
-2.10376e-06
-2.95885e-06
-3.00798e-06
-2.54771e-06
-4.06822e-06
-2.13691e-06
-5.57124e-06
-1.38104e-06
-7.8911e-06
-9.36615e-06
-1.14256e-06
4.99277e-06
-2.06391e-06
6.45512e-06
-2.66543e-06
6.60592e-06
-2.94199e-06
5.81753e-06
-2.97705e-06
4.44506e-06
-2.89752e-06
3.24288e-06
-2.87417e-06
2.31652e-06
-2.86573e-06
1.68814e-06
-2.87044e-06
1.06704e-06
-2.87374e-06
6.26037e-07
-2.87194e-06
1.29379e-07
-2.84008e-06
-3.28122e-07
-2.76282e-06
-9.02918e-07
-2.60199e-06
-1.5449e-06
-2.38111e-06
-2.32465e-06
-2.0993e-06
-3.28979e-06
-1.74714e-06
-4.42038e-06
-1.40199e-06
-5.91638e-06
-1.03848e-06
-8.25462e-06
-1.04046e-05
-8.13368e-07
5.80614e-06
-1.44977e-06
7.09152e-06
-1.86148e-06
7.01763e-06
-2.00087e-06
5.95692e-06
-1.99066e-06
4.43485e-06
-1.91795e-06
3.17016e-06
-1.90192e-06
2.3005e-06
-1.89624e-06
1.68245e-06
-1.92533e-06
1.09613e-06
-1.95166e-06
6.5237e-07
-1.98427e-06
1.61984e-07
-1.99398e-06
-3.18407e-07
-1.97919e-06
-9.17705e-07
-1.88802e-06
-1.63608e-06
-1.72479e-06
-2.48787e-06
-1.52188e-06
-3.4927e-06
-1.26018e-06
-4.68208e-06
-1.00915e-06
-6.16742e-06
-7.69636e-07
-8.49413e-06
-1.11743e-05
-4.66505e-07
6.27265e-06
-8.68591e-07
7.49361e-06
-1.12428e-06
7.27331e-06
-1.21091e-06
6.04354e-06
-1.18425e-06
4.40819e-06
-1.11839e-06
3.1043e-06
-1.10914e-06
2.29125e-06
-1.11702e-06
1.69034e-06
-1.16302e-06
1.14212e-06
-1.20836e-06
6.97714e-07
-1.25856e-06
2.12185e-07
-1.28692e-06
-2.9005e-07
-1.30003e-06
-9.0459e-07
-1.25916e-06
-1.67696e-06
-1.13998e-06
-2.60705e-06
-9.90498e-07
-3.64218e-06
-7.98138e-07
-4.87444e-06
-6.32059e-07
-6.3335e-06
-5.64549e-07
-8.56164e-06
-1.17388e-05
-1.82816e-07
6.45546e-06
-3.80555e-07
7.69135e-06
-5.04732e-07
7.39749e-06
-5.65107e-07
6.10392e-06
-5.39657e-07
4.38274e-06
-4.95353e-07
3.06e-06
-4.95526e-07
2.29142e-06
-5.22277e-07
1.71709e-06
-5.85633e-07
1.20548e-06
-6.48109e-07
7.60189e-07
-7.13566e-07
2.77642e-07
-7.46079e-07
-2.57537e-07
-7.59319e-07
-8.91351e-07
-7.52453e-07
-1.68382e-06
-6.91926e-07
-2.66758e-06
-6.01997e-07
-3.73211e-06
-5.22509e-07
-4.95392e-06
-4.36784e-07
-6.41923e-06
-4.07647e-07
-8.59077e-06
-1.21465e-05
1.07876e-07
6.34759e-06
7.60454e-08
7.72318e-06
3.32225e-08
7.44031e-06
1.6256e-08
6.12088e-06
2.48904e-08
4.3741e-06
1.19648e-08
3.07293e-06
-4.78206e-09
2.30817e-06
-4.51261e-08
1.75743e-06
-1.086e-07
1.26895e-06
-1.72121e-07
8.2371e-07
-2.37703e-07
3.43225e-07
-2.78583e-07
-2.16657e-07
-2.75452e-07
-8.94482e-07
-2.75951e-07
-1.68332e-06
-2.33169e-07
-2.71036e-06
-2.29746e-07
-3.73553e-06
-1.82005e-07
-5.00166e-06
-2.0227e-07
-6.39896e-06
-3.07607e-07
-8.48544e-06
-1.24541e-05
3.58725e-07
5.98886e-06
5.19499e-07
7.5624e-06
6.0778e-07
7.35203e-06
5.32257e-07
6.19641e-06
4.77853e-07
4.42851e-06
4.51309e-07
3.09947e-06
4.36609e-07
2.32287e-06
4.04028e-07
1.79001e-06
3.50493e-07
1.32249e-06
2.94895e-07
8.79308e-07
2.46106e-07
3.92014e-07
2.05124e-07
-1.75675e-07
2.00859e-07
-8.90217e-07
1.85343e-07
-1.66781e-06
1.79767e-07
-2.70479e-06
7.06432e-08
-3.62641e-06
7.37574e-08
-5.00478e-06
-9.0169e-08
-6.23503e-06
-2.14017e-07
-8.36159e-06
-1.26681e-05
5.99365e-07
5.3895e-06
9.50811e-07
7.21096e-06
1.14788e-06
7.15497e-06
1.09024e-06
6.25404e-06
9.89358e-07
4.52939e-06
9.17108e-07
3.17172e-06
8.94951e-07
2.34503e-06
8.8282e-07
1.80214e-06
8.59153e-07
1.34616e-06
8.33948e-07
9.04512e-07
8.12269e-07
4.13694e-07
7.91074e-07
-1.54481e-07
7.53292e-07
-8.52435e-07
7.23847e-07
-1.63836e-06
6.19533e-07
-2.60047e-06
5.08149e-07
-3.51502e-06
3.44084e-07
-4.84071e-06
8.74592e-08
-5.97841e-06
-1.25215e-07
-8.14892e-06
-1.27933e-05
8.58635e-07
4.53086e-06
1.34299e-06
6.7266e-06
1.66412e-06
6.83384e-06
1.7114e-06
6.20676e-06
1.55184e-06
4.68895e-06
1.44981e-06
3.27375e-06
1.42646e-06
2.36837e-06
1.44204e-06
1.78657e-06
1.45929e-06
1.32891e-06
1.46823e-06
8.95574e-07
1.46059e-06
4.21334e-07
1.43765e-06
-1.3154e-07
1.36996e-06
-7.84748e-07
1.28117e-06
-1.54957e-06
1.08712e-06
-2.40642e-06
8.92338e-07
-3.32024e-06
5.83443e-07
-4.53182e-06
2.35037e-07
-5.63e-06
2.11054e-10
-7.91409e-06
-1.27931e-05
1.08377e-06
3.44709e-06
1.76849e-06
6.04188e-06
2.18041e-06
6.42193e-06
2.36422e-06
6.02295e-06
2.22782e-06
4.82535e-06
2.09138e-06
3.41019e-06
2.04007e-06
2.41969e-06
2.0642e-06
1.76244e-06
2.11612e-06
1.27698e-06
2.16238e-06
8.49319e-07
2.17012e-06
4.13594e-07
2.13511e-06
-9.65312e-08
2.03935e-06
-6.88984e-07
1.88144e-06
-1.39166e-06
1.62879e-06
-2.15377e-06
1.35159e-06
-3.04305e-06
9.39495e-07
-4.11972e-06
4.85797e-07
-5.17631e-06
1.12355e-07
-7.54065e-06
-1.26807e-05
1.27193e-06
2.17516e-06
2.0465e-06
5.26731e-06
2.58968e-06
5.87875e-06
2.98228e-06
5.63035e-06
3.03594e-06
4.77169e-06
2.925e-06
3.52112e-06
2.84249e-06
2.5022e-06
2.83231e-06
1.77262e-06
2.86002e-06
1.24927e-06
2.90791e-06
8.01431e-07
2.92139e-06
4.00114e-07
2.8779e-06
-5.30451e-08
2.74575e-06
-5.56832e-07
2.52945e-06
-1.17536e-06
2.21068e-06
-1.83501e-06
1.83327e-06
-2.66564e-06
1.28855e-06
-3.575e-06
6.68814e-07
-4.55656e-06
2.48475e-07
-7.12031e-06
-1.24323e-05
1.2433e-06
9.31861e-07
2.14773e-06
4.36287e-06
2.85835e-06
5.16814e-06
3.48456e-06
5.00413e-06
3.82947e-06
4.42679e-06
3.89601e-06
3.45457e-06
3.8632e-06
2.53501e-06
3.83665e-06
1.79918e-06
3.81899e-06
1.26693e-06
3.80839e-06
8.12036e-07
3.7723e-06
4.36199e-07
3.70906e-06
1.01998e-08
3.53506e-06
-3.82837e-07
3.26852e-06
-9.08815e-07
2.8957e-06
-1.46219e-06
2.41641e-06
-2.18635e-06
1.76639e-06
-2.92498e-06
1.01686e-06
-3.80704e-06
4.84237e-07
-6.58768e-06
-1.1948e-05
6.86528e-07
2.45333e-07
1.81709e-06
3.23231e-06
2.86344e-06
4.1218e-06
3.74741e-06
4.12015e-06
4.41343e-06
3.76078e-06
4.79445e-06
3.07355e-06
4.97158e-06
2.35788e-06
5.04302e-06
1.72774e-06
5.05974e-06
1.25021e-06
5.04376e-06
8.2802e-07
4.97297e-06
5.06984e-07
4.82255e-06
1.60621e-07
4.5895e-06
-1.49786e-07
4.26221e-06
-5.81531e-07
3.78426e-06
-9.84235e-07
3.14258e-06
-1.54467e-06
2.2849e-06
-2.06729e-06
1.36346e-06
-2.88561e-06
8.0164e-07
-6.02586e-06
-1.11464e-05
-1.95316e-07
4.40649e-07
1.11917e-06
1.91783e-06
2.39005e-06
2.85091e-06
3.58751e-06
2.9227e-06
4.57823e-06
2.77006e-06
5.31485e-06
2.33693e-06
5.79062e-06
1.88211e-06
6.10911e-06
1.40925e-06
6.2612e-06
1.09812e-06
6.3211e-06
7.68119e-07
6.25353e-06
5.74558e-07
6.1184e-06
2.95746e-07
5.83055e-06
1.38069e-07
5.42084e-06
-1.71824e-07
4.80347e-06
-3.66865e-07
4.02403e-06
-7.65229e-07
2.94774e-06
-9.91004e-07
2.04288e-06
-1.98074e-06
1.37279e-06
-5.35578e-06
-9.77359e-06
-1.16565e-06
1.6063e-06
-1.91648e-07
9.43824e-07
1.35596e-06
1.30331e-06
2.853e-06
1.42566e-06
4.15912e-06
1.46393e-06
5.20649e-06
1.28955e-06
5.95715e-06
1.13146e-06
6.481e-06
8.85402e-07
6.81139e-06
7.67722e-07
6.98319e-06
5.96315e-07
7.02593e-06
5.31825e-07
6.93049e-06
3.91178e-07
6.71288e-06
3.55686e-07
6.3363e-06
2.04754e-07
5.80738e-06
1.62048e-07
5.10163e-06
-5.9472e-08
4.37516e-06
-2.64539e-07
3.76331e-06
-1.36889e-06
2.58814e-06
-4.18061e-06
-7.18545e-06
1.6063e-06
2.55012e-06
3.85343e-06
5.27909e-06
6.74302e-06
8.03257e-06
9.16403e-06
1.00494e-05
1.08172e-05
1.14135e-05
1.19453e-05
1.23365e-05
1.26922e-05
1.28969e-05
1.3059e-05
1.29995e-05
1.27349e-05
1.13661e-05
7.18545e-06
)
;

boundaryField
{
    movingWall
    {
        type            calculated;
        value           uniform 0;
    }
    fixedWalls
    {
        type            calculated;
        value           uniform 0;
    }
    frontAndBack
    {
        type            empty;
        value           nonuniform 0();
    }
}


// ************************************************************************* //
