/*--------------------------------*- C++ -*----------------------------------*\
| =========                 |                                                 |
| \\      /  F ield         | OpenFOAM: The Open Source CFD Toolbox           |
|  \\    /   O peration     | Version:  5.0                                   |
|   \\  /    A nd           | Web:      www.OpenFOAM.org                      |
|    \\/     M anipulation  |                                                 |
\*---------------------------------------------------------------------------*/
FoamFile
{
    version     2.0;
    format      ascii;
    class       volVectorField;
    location    "8";
    object      U;
}
// * * * * * * * * * * * * * * * * * * * * * * * * * * * * * * * * * * * * * //

dimensions      [0 1 -1 0 0 0 0];

internalField   nonuniform List<vector> 
400
(
(0.00248754 -0.00457754 0)
(0.00892848 -0.00279467 0)
(-0.00259994 0.00150936 0)
(-0.01545 0.00994167 0)
(-0.0650723 0.0204207 0)
(-0.0972409 0.0150271 0)
(-0.126497 0.0147715 0)
(-0.14582 0.0112415 0)
(-0.162056 0.00984964 0)
(-0.172255 0.00711483 0)
(-0.179803 0.00575707 0)
(-0.183123 0.00348759 0)
(-0.183981 0.00165542 0)
(-0.179345 -0.0014329 0)
(-0.170118 -0.00411573 0)
(-0.153501 -0.00918865 0)
(-0.12949 -0.0140963 0)
(-0.0958304 -0.0201758 0)
(-0.0576929 -0.0189987 0)
(-0.0110419 -0.00512877 0)
(-0.000866238 -0.00810214 0)
(-0.0113416 0.00741813 0)
(-0.0398857 0.0302559 0)
(-0.0792717 0.0505131 0)
(-0.110949 0.0479666 0)
(-0.131695 0.041598 0)
(-0.149714 0.0342422 0)
(-0.163166 0.0237309 0)
(-0.173619 0.0173572 0)
(-0.17989 0.0096366 0)
(-0.183614 0.0046893 0)
(-0.183732 -0.00173759 0)
(-0.181156 -0.00658079 0)
(-0.175437 -0.0135121 0)
(-0.165939 -0.0206834 0)
(-0.151449 -0.0318703 0)
(-0.130835 -0.0458646 0)
(-0.102815 -0.0647169 0)
(-0.0701577 -0.078558 0)
(-0.0175675 -0.0554396 0)
(-0.00765694 0.009727 0)
(-0.0346756 0.0406294 0)
(-0.0688048 0.0654273 0)
(-0.0984815 0.0756029 0)
(-0.117403 0.0678369 0)
(-0.129821 0.0576597 0)
(-0.140778 0.0432642 0)
(-0.144946 0.0337872 0)
(-0.145184 0.02337 0)
(-0.144875 0.0151548 0)
(-0.143074 0.00712465 0)
(-0.141227 5.61171e-05 0)
(-0.13856 -0.00749719 0)
(-0.133175 -0.0153753 0)
(-0.126424 -0.0258162 0)
(-0.116465 -0.0391254 0)
(-0.102463 -0.0593937 0)
(-0.0822646 -0.0862175 0)
(-0.0625988 -0.113665 0)
(-0.0210424 -0.112304 0)
(-0.011131 0.0362032 0)
(-0.0438487 0.0707317 0)
(-0.0755043 0.0920995 0)
(-0.0953882 0.0931443 0)
(-0.105799 0.0799793 0)
(-0.111118 0.0651304 0)
(-0.109661 0.0482776 0)
(-0.106729 0.0345723 0)
(-0.108021 0.0217276 0)
(-0.107189 0.0124387 0)
(-0.107274 0.00338494 0)
(-0.105633 -0.00404728 0)
(-0.103071 -0.0128536 0)
(-0.0991016 -0.0218859 0)
(-0.0927111 -0.0337682 0)
(-0.0864726 -0.0476818 0)
(-0.076085 -0.0676077 0)
(-0.0575957 -0.0991918 0)
(-0.0477671 -0.136331 0)
(-0.0160509 -0.145909 0)
(-0.0107089 0.0620124 0)
(-0.0448585 0.0972584 0)
(-0.0663878 0.109778 0)
(-0.0798445 0.104432 0)
(-0.0831284 0.0863917 0)
(-0.0820118 0.0677672 0)
(-0.0791094 0.0481641 0)
(-0.0801757 0.0346919 0)
(-0.0795815 0.0216185 0)
(-0.0805865 0.0125168 0)
(-0.079712 0.00268323 0)
(-0.0797995 -0.00567787 0)
(-0.076892 -0.0160023 0)
(-0.0744451 -0.0267674 0)
(-0.0680939 -0.0407756 0)
(-0.0627384 -0.0571854 0)
(-0.0587583 -0.0769115 0)
(-0.0396882 -0.107356 0)
(-0.0422376 -0.154096 0)
(-0.00649585 -0.178333 0)
(-0.00950041 0.0868173 0)
(-0.0370111 0.118675 0)
(-0.0506715 0.12509 0)
(-0.0611634 0.113538 0)
(-0.0594767 0.0900656 0)
(-0.0572691 0.0669418 0)
(-0.0559971 0.0475673 0)
(-0.0575569 0.0346981 0)
(-0.056224 0.0217971 0)
(-0.058344 0.0128955 0)
(-0.05715 0.00276781 0)
(-0.0584663 -0.00593997 0)
(-0.0561195 -0.0168816 0)
(-0.0548891 -0.0288072 0)
(-0.0500499 -0.0438756 0)
(-0.0429059 -0.0626752 0)
(-0.0435809 -0.0840734 0)
(-0.0235331 -0.11341 0)
(-0.0324625 -0.160723 0)
(-0.00341461 -0.197966 0)
(-0.00709173 0.107445 0)
(-0.0265027 0.13428 0)
(-0.0360617 0.135252 0)
(-0.043047 0.117458 0)
(-0.0389717 0.0889292 0)
(-0.0376793 0.0648206 0)
(-0.0370816 0.046771 0)
(-0.038325 0.0342105 0)
(-0.0371934 0.0219076 0)
(-0.0395903 0.0128528 0)
(-0.0390155 0.00268638 0)
(-0.0408401 -0.00681449 0)
(-0.0397468 -0.0186162 0)
(-0.039252 -0.0322415 0)
(-0.0375574 -0.0483915 0)
(-0.0290892 -0.0682123 0)
(-0.0338229 -0.0911131 0)
(-0.0141088 -0.121403 0)
(-0.0282991 -0.168213 0)
(0.00216032 -0.217088 0)
(-0.00367252 0.120412 0)
(-0.0159018 0.145461 0)
(-0.0221579 0.143224 0)
(-0.0266136 0.121169 0)
(-0.0225321 0.090407 0)
(-0.0221093 0.0640723 0)
(-0.0215797 0.0468089 0)
(-0.022645 0.0343135 0)
(-0.0220381 0.0228571 0)
(-0.0243002 0.0139134 0)
(-0.0244319 0.00411511 0)
(-0.0262215 -0.00561719 0)
(-0.0260503 -0.0176841 0)
(-0.0252804 -0.0327479 0)
(-0.0264661 -0.0504202 0)
(-0.0168543 -0.0710356 0)
(-0.024762 -0.0945366 0)
(-0.00476776 -0.12384 0)
(-0.0226396 -0.169644 0)
(0.00368315 -0.228333 0)
(-0.000601908 0.128638 0)
(-0.00738262 0.152337 0)
(-0.00987234 0.147113 0)
(-0.0128727 0.122007 0)
(-0.00967313 0.087418 0)
(-0.00997652 0.0610886 0)
(-0.00940291 0.0455275 0)
(-0.0104185 0.0338204 0)
(-0.0106167 0.0233392 0)
(-0.0127515 0.0144764 0)
(-0.0135099 0.00475688 0)
(-0.0150182 -0.00557524 0)
(-0.0156135 -0.0179706 0)
(-0.013992 -0.0338564 0)
(-0.0175489 -0.053222 0)
(-0.00780403 -0.0742352 0)
(-0.0186463 -0.0995736 0)
(0.000543191 -0.128668 0)
(-0.0205104 -0.172135 0)
(0.00723219 -0.240074 0)
(0.00293747 0.129223 0)
(0.000900903 0.155778 0)
(0.0012772 0.149712 0)
(-0.000629731 0.123025 0)
(0.00134979 0.0887915 0)
(7.89701e-05 0.0620313 0)
(0.000486627 0.0463235 0)
(-0.000617587 0.0349001 0)
(-0.00127141 0.0248215 0)
(-0.00307768 0.0158606 0)
(-0.00414657 0.00624447 0)
(-0.00522485 -0.00480059 0)
(-0.00651838 -0.0178871 0)
(-0.00383403 -0.033665 0)
(-0.00837923 -0.0541784 0)
(0.000805032 -0.0741207 0)
(-0.012054 -0.100236 0)
(0.00706252 -0.126882 0)
(-0.017574 -0.171311 0)
(0.00817603 -0.246165 0)
(0.00605163 0.125558 0)
(0.00755326 0.154869 0)
(0.0112503 0.148912 0)
(0.0103904 0.122715 0)
(0.011357 0.0864439 0)
(0.00932675 0.0600856 0)
(0.00940929 0.0452186 0)
(0.00830744 0.0346631 0)
(0.00761698 0.0252691 0)
(0.00629057 0.0164996 0)
(0.00508731 0.00705583 0)
(0.004736 -0.00423182 0)
(0.00301609 -0.0185965 0)
(0.00556472 -0.0342796 0)
(0.00090759 -0.0554136 0)
(0.00788411 -0.0747868 0)
(-0.00633838 -0.102003 0)
(0.0110325 -0.12754 0)
(-0.0167044 -0.169783 0)
(0.0110381 -0.252172 0)
(0.00782984 0.115628 0)
(0.0149901 0.150277 0)
(0.0208437 0.14698 0)
(0.0215634 0.124914 0)
(0.022178 0.0897428 0)
(0.019384 0.0629598 0)
(0.0185376 0.0469143 0)
(0.0175592 0.0361758 0)
(0.017318 0.0268904 0)
(0.0167232 0.0179693 0)
(0.0159337 0.00813223 0)
(0.016411 -0.00313284 0)
(0.0145467 -0.0177578 0)
(0.0163432 -0.0335622 0)
(0.0112706 -0.0532911 0)
(0.0160682 -0.071908 0)
(0.00104191 -0.0976662 0)
(0.0166797 -0.121474 0)
(-0.0154829 -0.165267 0)
(0.0130352 -0.254618 0)
(0.0110114 0.104168 0)
(0.021275 0.14167 0)
(0.0300966 0.140848 0)
(0.0327352 0.125052 0)
(0.0337954 0.089663 0)
(0.0305808 0.0625274 0)
(0.0291536 0.045904 0)
(0.0283895 0.0351594 0)
(0.0286934 0.0263118 0)
(0.0291967 0.0176826 0)
(0.0285532 0.00804588 0)
(0.0297557 -0.00318651 0)
(0.0272116 -0.0166173 0)
(0.0282325 -0.0322568 0)
(0.0221542 -0.0504409 0)
(0.0239373 -0.0692403 0)
(0.00819502 -0.0944724 0)
(0.0202087 -0.117812 0)
(-0.0148478 -0.160416 0)
(0.0165197 -0.255639 0)
(0.0129086 0.0808578 0)
(0.027783 0.131131 0)
(0.0405051 0.134105 0)
(0.0441199 0.124569 0)
(0.0469993 0.0965589 0)
(0.0440926 0.066765 0)
(0.0416586 0.0479231 0)
(0.0407898 0.0360346 0)
(0.0411116 0.0268833 0)
(0.0429751 0.0183152 0)
(0.0424049 0.00901159 0)
(0.0441264 -0.00188905 0)
(0.0410133 -0.0143051 0)
(0.041217 -0.0289837 0)
(0.0341219 -0.0451961 0)
(0.033218 -0.0632543 0)
(0.0177182 -0.0851671 0)
(0.0258872 -0.106906 0)
(-0.0124576 -0.15386 0)
(0.0199551 -0.253954 0)
(0.0160728 0.0613 0)
(0.0320036 0.114301 0)
(0.0475309 0.123465 0)
(0.0548636 0.116634 0)
(0.0601236 0.0968785 0)
(0.0602119 0.0684685 0)
(0.0581306 0.0474477 0)
(0.0568947 0.0339533 0)
(0.0558484 0.0245382 0)
(0.0580783 0.0163415 0)
(0.0572146 0.00817794 0)
(0.0591422 -0.00166737 0)
(0.0555648 -0.0124285 0)
(0.055004 -0.0255141 0)
(0.0467112 -0.0397118 0)
(0.0435346 -0.0567644 0)
(0.0278903 -0.0774009 0)
(0.0302033 -0.0984198 0)
(-0.0107131 -0.146815 0)
(0.0255371 -0.252285 0)
(0.0135053 0.0244824 0)
(0.0351364 0.098418 0)
(0.052046 0.113145 0)
(0.0630017 0.109682 0)
(0.0720251 0.0960474 0)
(0.0770046 0.0731865 0)
(0.0774376 0.0519217 0)
(0.0777958 0.0359518 0)
(0.0753814 0.0248432 0)
(0.0768827 0.0158311 0)
(0.0746313 0.0083247 0)
(0.0759609 -0.000224371 0)
(0.0716534 -0.00899768 0)
(0.0703259 -0.0203125 0)
(0.061277 -0.0321541 0)
(0.0566746 -0.0479421 0)
(0.0408165 -0.0642565 0)
(0.0368641 -0.0824411 0)
(-0.00525331 -0.137458 0)
(0.0319961 -0.248691 0)
(0.00146698 0.0095823 0)
(0.0276405 0.0707772 0)
(0.0493598 0.0925071 0)
(0.0653033 0.0929032 0)
(0.0798865 0.0842712 0)
(0.0914398 0.0683144 0)
(0.0965767 0.0517433 0)
(0.101183 0.0368817 0)
(0.100107 0.0253945 0)
(0.101902 0.0158353 0)
(0.0988707 0.00824728 0)
(0.0991462 0.000438657 0)
(0.0935143 -0.0069494 0)
(0.0907549 -0.0160755 0)
(0.0806748 -0.0253919 0)
(0.0733082 -0.0377169 0)
(0.0552845 -0.0501257 0)
(0.0430355 -0.0688866 0)
(0.000888713 -0.132122 0)
(0.0415673 -0.245442 0)
(-0.0188277 -0.000745545 0)
(0.0124215 0.057234 0)
(0.0369832 0.0759372 0)
(0.0593723 0.0771171 0)
(0.0793507 0.0714092 0)
(0.0986147 0.0594327 0)
(0.109487 0.0468592 0)
(0.120138 0.0360489 0)
(0.122613 0.0276584 0)
(0.127046 0.0196381 0)
(0.124816 0.0138675 0)
(0.125116 0.00708327 0)
(0.11879 0.00193031 0)
(0.114847 -0.00528694 0)
(0.102643 -0.0114263 0)
(0.0926555 -0.0207589 0)
(0.0712472 -0.029586 0)
(0.0517397 -0.0496928 0)
(0.016717 -0.123528 0)
(0.0544999 -0.233343 0)
(-0.0256606 0.0227994 0)
(-0.0171429 0.0221444 0)
(0.0115243 0.0388269 0)
(0.0426926 0.0416787 0)
(0.0680367 0.0413245 0)
(0.0939799 0.0359779 0)
(0.11024 0.0304794 0)
(0.125187 0.022403 0)
(0.13258 0.0181994 0)
(0.138813 0.0126403 0)
(0.140261 0.010315 0)
(0.14027 0.00543498 0)
(0.136553 0.00413465 0)
(0.13201 -0.000836071 0)
(0.120856 -0.00219003 0)
(0.111413 -0.0087711 0)
(0.088844 -0.0129999 0)
(0.076391 -0.0389711 0)
(0.0559875 -0.112284 0)
(0.0788445 -0.183595 0)
(0.0356681 0.0321823 0)
(0.0400956 0.0189867 0)
(0.0580333 0.0173031 0)
(0.0918098 0.0180151 0)
(0.117453 0.0200314 0)
(0.146991 0.0184861 0)
(0.169597 0.0175542 0)
(0.191981 0.0150276 0)
(0.208324 0.0138824 0)
(0.223186 0.0119968 0)
(0.233814 0.011252 0)
(0.243204 0.00976684 0)
(0.250045 0.00923521 0)
(0.255034 0.00798445 0)
(0.259339 0.00773596 0)
(0.25951 0.00607874 0)
(0.254933 0.00499359 0)
(0.241513 -0.00205938 0)
(0.202494 -0.0141152 0)
(0.148677 -0.0333459 0)
)
;

boundaryField
{
    movingWall
    {
        type            fixedValue;
        value           uniform (1 0 0);
    }
    fixedWalls
    {
        type            noSlip;
    }
    frontAndBack
    {
        type            empty;
    }
}


// ************************************************************************* //
