/*--------------------------------*- C++ -*----------------------------------*\
| =========                 |                                                 |
| \\      /  F ield         | OpenFOAM: The Open Source CFD Toolbox           |
|  \\    /   O peration     | Version:  5.0                                   |
|   \\  /    A nd           | Web:      www.OpenFOAM.org                      |
|    \\/     M anipulation  |                                                 |
\*---------------------------------------------------------------------------*/
FoamFile
{
    version     2.0;
    format      ascii;
    class       volScalarField;
    location    "8";
    object      yPlus;
}
// * * * * * * * * * * * * * * * * * * * * * * * * * * * * * * * * * * * * * //

dimensions      [0 0 0 0 0 0 0];

internalField   uniform 0;

boundaryField
{
    movingWall
    {
        type            calculated;
        value           nonuniform List<scalar> 
20
(
15.5312
15.4927
15.347
15.0696
14.8558
14.6049
14.41
14.2141
14.0695
13.9365
13.8408
13.7555
13.6932
13.6474
13.6079
13.6062
13.6481
13.7703
14.1212
14.5943
)
;
    }
    fixedWalls
    {
        type            calculated;
        value           nonuniform List<scalar> 
60
(
1.14125
1.42726
1.7592
3.07716
3.96643
4.67268
5.18842
5.4879
5.67097
5.68455
5.60588
5.38268
5.11733
4.52443
3.98033
2.64388
1.55675
2.17039
2.92942
3.46557
1.74463
3.81302
5.34458
6.05783
6.67928
7.03554
7.36714
7.55584
7.74892
7.84699
7.94376
7.9836
8.00269
7.98024
7.96201
7.9174
7.88887
7.73988
7.06769
6.17192
1.14125
1.52935
0.866935
2.14314
4.1292
4.95972
5.64262
6.04675
6.37093
6.56509
6.70625
6.76676
6.78212
6.69609
6.52242
6.20032
5.70647
4.94801
3.89681
1.74463
)
;
    }
    frontAndBack
    {
        type            empty;
    }
}


// ************************************************************************* //
