/*--------------------------------*- C++ -*----------------------------------*\
| =========                 |                                                 |
| \\      /  F ield         | OpenFOAM: The Open Source CFD Toolbox           |
|  \\    /   O peration     | Version:  5.0                                   |
|   \\  /    A nd           | Web:      www.OpenFOAM.org                      |
|    \\/     M anipulation  |                                                 |
\*---------------------------------------------------------------------------*/
FoamFile
{
    version     2.0;
    format      ascii;
    class       volScalarField;
    location    "0.5";
    object      p;
}
// * * * * * * * * * * * * * * * * * * * * * * * * * * * * * * * * * * * * * //

dimensions      [0 2 -2 0 0 0 0];

internalField   nonuniform List<scalar> 
400
(
1.05609e-08
3.04584e-06
1.111e-05
2.43461e-05
4.28849e-05
6.68845e-05
9.6478e-05
0.00013173
0.000172579
0.000218734
0.000269761
0.000324863
0.000382716
0.000441552
0.000499193
0.000553001
0.000600081
0.000637526
0.000662685
0.000674186
-3.40166e-06
-4.42382e-07
7.38556e-06
2.03922e-05
3.86997e-05
6.24794e-05
9.1896e-05
0.000127057
0.000167954
0.000214393
0.000265956
0.000321889
0.000380999
0.000441491
0.000501095
0.000557064
0.000606308
0.000645636
0.000672038
0.000684233
-1.26991e-05
-9.75838e-06
-2.14255e-06
1.05812e-05
2.85786e-05
5.20781e-05
8.13175e-05
0.000116495
0.000157714
0.000204912
0.000257783
0.000315676
0.000377601
0.000441738
0.000505707
0.0005665
0.000620608
0.000664277
0.000693851
0.00070779
-2.79295e-05
-2.51358e-05
-1.78243e-05
-5.49456e-06
1.20733e-05
3.51885e-05
6.41958e-05
9.94319e-05
0.00014117
0.000189545
0.000244459
0.000305447
0.000371795
0.0004417
0.000512696
0.000581403
0.000643628
0.000694648
0.000729656
0.000746416
-4.90492e-05
-4.65031e-05
-3.96249e-05
-2.78631e-05
-1.09329e-05
1.15751e-05
4.0144e-05
7.52934e-05
0.000117529
0.000167268
0.000224726
0.00028971
0.000361977
0.000439844
0.00052084
0.000601139
0.000675573
0.000737928
0.000781485
0.000802676
-7.60212e-05
-7.38203e-05
-6.75481e-05
-5.66032e-05
-4.06295e-05
-1.91037e-05
8.62014e-06
4.32841e-05
8.56894e-05
0.000136637
0.000196832
0.000266808
0.000345792
0.000433739
0.000528055
0.000624445
0.000716496
0.000795784
0.000852499
0.000880586
-0.000108784
-0.000107031
-0.000101583
-9.17856e-05
-7.72109e-05
-5.72192e-05
-3.09901e-05
2.46841e-06
4.43027e-05
9.57681e-05
0.000158136
0.000232521
0.000319485
0.0004196
0.000530848
0.000648818
0.00076576
0.000870143
0.000947218
0.000986141
-0.000147224
-0.000146041
-0.000141668
-0.000133425
-0.000120817
-0.000103101
-7.92893e-05
-4.81344e-05
-8.11308e-06
4.25609e-05
0.000105871
0.00018383
0.000278278
0.000391877
0.000523525
0.000669475
0.000821023
0.000962673
0.00107187
0.00112822
-0.000191178
-0.000190695
-0.00018767
-0.000181442
-0.000171472
-0.00015695
-0.000136758
-0.000109419
-7.30393e-05
-2.5255e-05
3.67644e-05
0.00011613
0.000215537
0.000342589
0.000497006
0.000677583
0.000876224
0.00107333
0.0012346
0.00131988
-0.000240456
-0.000240779
-0.00023936
-0.000235617
-0.000229012
-0.000218734
-0.000203608
-0.000182006
-0.000151735
-0.000109885
-5.26634e-05
2.47952e-05
0.000128969
0.000260988
0.000437221
0.000657307
0.000917522
0.00119639
0.00144486
0.00157959
-0.000294881
-0.000296049
-0.000296415
-0.000295554
-0.000293009
-0.000288061
-0.000279594
-0.000265977
-0.000244893
-0.000213098
-0.000166127
-9.80097e-05
-1.59062e-06
0.000128127
0.000323218
0.000581249
0.000915459
0.00131045
0.00171041
0.0019298
-0.000354402
-0.000356312
-0.000358443
-0.000360658
-0.000362693
-0.000364043
-0.000363803
-0.000360543
-0.000352108
-0.000335288
-0.000305324
-0.000255137
-0.000173937
-4.3983e-05
0.000131173
0.000404054
0.000809903
0.00135177
0.0020229
0.00238469
-0.000419279
-0.000421595
-0.000425048
-0.000430125
-0.000436894
-0.000445179
-0.000454444
-0.000463709
-0.000471367
-0.000474837
-0.000470023
-0.000450415
-0.000405668
-0.000319932
-0.000174129
4.80451e-05
0.000487627
0.00116905
0.00226738
0.00288879
-0.000490687
-0.000492361
-0.000495863
-0.000502936
-0.000514001
-0.000529276
-0.000548718
-0.000572032
-0.000598559
-0.000627023
-0.00065514
-0.000678851
-0.000690988
-0.000678838
-0.000618039
-0.000455234
-0.000201144
0.000425137
0.00187954
0.00312233
-0.000571354
-0.000570396
-0.000570818
-0.000577873
-0.000591961
-0.000613479
-0.000642858
-0.000680625
-0.000727391
-0.000783768
-0.000850531
-0.000928476
-0.00101811
-0.00112004
-0.00123847
-0.0013964
-0.00161854
-0.00157723
-0.000496131
0.00228693
-0.000668197
-0.000657014
-0.000649079
-0.000653352
-0.000668261
-0.000694301
-0.0007322
-0.000783273
-0.000849521
-0.00093345
-0.00103942
-0.00117458
-0.00134967
-0.00158538
-0.00193113
-0.00251769
-0.0035026
-0.00456067
-0.00475847
-0.000127849
-0.000803215
-0.000756714
-0.000733245
-0.000728392
-0.000740921
-0.000768834
-0.000812591
-0.000874022
-0.000955771
-0.00106321
-0.00120324
-0.00139024
-0.00164445
-0.00200871
-0.00256229
-0.00355079
-0.00538906
-0.00722231
-0.00866964
-0.00285442
-0.00100569
-0.000864004
-0.000820239
-0.000803351
-0.000809296
-0.000834582
-0.000879888
-0.000946424
-0.00103673
-0.00116116
-0.00132231
-0.00154314
-0.00183926
-0.00227475
-0.00293896
-0.00395829
-0.00631472
-0.00810793
-0.00963634
-0.00222173
-0.00145175
-0.00108104
-0.000969688
-0.000903802
-0.00089161
-0.000909252
-0.000951277
-0.00101941
-0.00110945
-0.00124712
-0.00139814
-0.00164054
-0.0019276
-0.00237176
-0.00302135
-0.0040906
-0.00595234
-0.00759898
-0.00512346
0.008166
-0.00251711
-0.000633402
-0.00057751
-0.000663739
-0.00071375
-0.000753366
-0.000811405
-0.000901344
-0.00100665
-0.0011611
-0.00133508
-0.00155679
-0.00189293
-0.00228803
-0.00289776
-0.00365209
-0.00433251
-0.00234971
0.00854476
0.0309645
)
;

boundaryField
{
    movingWall
    {
        type            zeroGradient;
    }
    fixedWalls
    {
        type            zeroGradient;
    }
    frontAndBack
    {
        type            empty;
    }
}


// ************************************************************************* //
