/*--------------------------------*- C++ -*----------------------------------*\
| =========                 |                                                 |
| \\      /  F ield         | OpenFOAM: The Open Source CFD Toolbox           |
|  \\    /   O peration     | Version:  5.0                                   |
|   \\  /    A nd           | Web:      www.OpenFOAM.org                      |
|    \\/     M anipulation  |                                                 |
\*---------------------------------------------------------------------------*/
FoamFile
{
    version     2.0;
    format      ascii;
    class       surfaceScalarField;
    location    "0.5";
    object      phi;
}
// * * * * * * * * * * * * * * * * * * * * * * * * * * * * * * * * * * * * * //

dimensions      [0 3 -1 0 0 0 0];

internalField   nonuniform List<scalar> 
760
(
-2.37232e-08
2.37222e-08
-5.18773e-08
2.8154e-08
-7.96958e-08
2.78185e-08
-1.06359e-07
2.66632e-08
-1.31361e-07
2.50017e-08
-1.54211e-07
2.28498e-08
-1.74407e-07
2.01962e-08
-1.91422e-07
1.70153e-08
-2.04681e-07
1.32588e-08
-2.13555e-07
8.87361e-09
-2.17594e-07
4.03914e-09
-2.16116e-07
-1.47745e-09
-2.08559e-07
-7.55773e-09
-1.9455e-07
-1.40093e-08
-1.73934e-07
-2.06152e-08
-1.46869e-07
-2.70651e-08
-1.13923e-07
-3.29463e-08
-7.61841e-08
-3.77389e-08
-3.57255e-08
-4.04587e-08
-3.57255e-08
-2.9315e-08
5.30371e-08
-6.48544e-08
6.36933e-08
-9.96279e-08
6.25921e-08
-1.32726e-07
5.97609e-08
-1.63575e-07
5.5851e-08
-1.91594e-07
5.08692e-08
-2.16184e-07
4.47852e-08
-2.36721e-07
3.75525e-08
-2.52572e-07
2.91099e-08
-2.63115e-07
1.94163e-08
-2.6759e-07
8.5143e-09
-2.65347e-07
-3.72046e-09
-2.55772e-07
-1.71329e-08
-2.38432e-07
-3.13487e-08
-2.13113e-07
-4.59346e-08
-1.79965e-07
-6.02126e-08
-1.39613e-07
-7.32984e-08
-9.32592e-08
-8.4093e-08
-4.32301e-08
-9.04878e-08
-7.89556e-08
-3.07241e-08
8.37613e-08
-6.77205e-08
1.0069e-07
-1.04006e-07
9.88774e-08
-1.38601e-07
9.43558e-08
-1.7091e-07
8.81606e-08
-2.00351e-07
8.03097e-08
-2.26326e-07
7.07606e-08
-2.48219e-07
5.9445e-08
-2.65384e-07
4.62751e-08
-2.77141e-07
3.11733e-08
-2.82766e-07
1.41394e-08
-2.81493e-07
-4.99341e-09
-2.72492e-07
-2.61344e-08
-2.55184e-07
-4.86567e-08
-2.2918e-07
-7.19387e-08
-1.94455e-07
-9.49376e-08
-1.51518e-07
-1.16236e-07
-1.01613e-07
-1.33997e-07
-4.74117e-08
-1.4469e-07
-1.26367e-07
-3.21147e-08
1.15876e-07
-7.07272e-08
1.39302e-07
-1.08656e-07
1.36806e-07
-1.44907e-07
1.30607e-07
-1.78894e-07
1.22147e-07
-2.10051e-07
1.11467e-07
-2.37805e-07
9.85151e-08
-2.61557e-07
8.31968e-08
-2.80659e-07
6.53766e-08
-2.94393e-07
4.49079e-08
-3.01968e-07
2.17141e-08
-3.02533e-07
-4.42888e-09
-2.94947e-07
-3.372e-08
-2.78357e-07
-6.52472e-08
-2.52013e-07
-9.82826e-08
-2.15536e-07
-1.31415e-07
-1.69179e-07
-1.62593e-07
-1.14163e-07
-1.89013e-07
-5.35911e-08
-2.05262e-07
-1.79958e-07
-3.3924e-08
1.498e-07
-7.475e-08
1.80128e-07
-1.14891e-07
1.76946e-07
-1.53348e-07
1.69065e-07
-1.89559e-07
1.58358e-07
-2.22993e-07
1.44901e-07
-2.53122e-07
1.28644e-07
-2.79383e-07
1.09458e-07
-3.01146e-07
8.71394e-08
-3.17671e-07
6.14328e-08
-3.28082e-07
3.21249e-08
-3.31473e-07
-1.03831e-09
-3.2622e-07
-3.89729e-08
-3.11097e-07
-8.03705e-08
-2.84784e-07
-1.24595e-07
-2.46283e-07
-1.69916e-07
-1.95333e-07
-2.13542e-07
-1.32974e-07
-2.51372e-07
-6.28687e-08
-2.75367e-07
-2.42827e-07
-3.62138e-08
1.86014e-07
-7.98656e-08
2.2378e-07
-1.22802e-07
2.19883e-07
-1.64017e-07
2.1028e-07
-2.02983e-07
1.97324e-07
-2.39231e-07
1.81149e-07
-2.72303e-07
1.61716e-07
-3.01713e-07
1.38868e-07
-3.26888e-07
1.12314e-07
-3.471e-07
8.16448e-08
-3.61395e-07
4.64201e-08
-3.68853e-07
6.4195e-09
-3.67277e-07
-4.05489e-08
-3.54913e-07
-9.27339e-08
-3.29587e-07
-1.49922e-07
-2.89263e-07
-2.10239e-07
-2.32692e-07
-2.70113e-07
-1.60348e-07
-3.23716e-07
-7.6521e-08
-3.59195e-07
-3.19348e-07
-3.90219e-08
2.25036e-07
-8.61207e-08
2.70879e-07
-1.32426e-07
2.66188e-07
-1.76917e-07
2.5477e-07
-2.19116e-07
2.39524e-07
-2.58642e-07
2.20674e-07
-2.95156e-07
1.9823e-07
-3.28302e-07
1.72015e-07
-3.57634e-07
1.41646e-07
-3.8252e-07
1.06531e-07
-4.02039e-07
6.59383e-08
-4.14862e-07
1.92425e-08
-4.19025e-07
-3.63854e-08
-4.11565e-07
-1.00194e-07
-3.89177e-07
-1.7231e-07
-3.48186e-07
-2.51231e-07
-2.85471e-07
-3.32828e-07
-2.00094e-07
-4.09092e-07
-9.67079e-08
-4.62581e-07
-4.16056e-07
-4.24043e-08
2.6744e-07
-9.36011e-08
3.22076e-07
-1.43847e-07
3.16434e-07
-1.92086e-07
3.03009e-07
-2.3791e-07
2.85348e-07
-2.81067e-07
2.63831e-07
-3.21392e-07
2.38555e-07
-3.58741e-07
2.09363e-07
-3.92887e-07
1.75791e-07
-4.23396e-07
1.37041e-07
-4.49481e-07
9.20234e-08
-4.69741e-07
3.9502e-08
-4.82307e-07
-2.38195e-08
-4.83019e-07
-9.94813e-08
-4.67105e-07
-1.88225e-07
-4.28378e-07
-2.89957e-07
-3.60324e-07
-4.00883e-07
-2.58716e-07
-5.107e-07
-1.27286e-07
-5.94011e-07
-5.43342e-07
-4.64573e-08
3.13897e-07
-1.02476e-07
3.78094e-07
-1.57238e-07
3.71197e-07
-2.09635e-07
3.55406e-07
-2.59355e-07
3.35067e-07
-3.06324e-07
3.108e-07
-3.50631e-07
2.82863e-07
-3.92436e-07
2.51168e-07
-4.31858e-07
2.15214e-07
-4.68834e-07
1.74016e-07
-5.02899e-07
1.26088e-07
-5.32822e-07
6.94254e-08
-5.57363e-07
7.20998e-10
-5.71037e-07
-8.58073e-08
-5.67558e-07
-1.91703e-07
-5.37239e-07
-3.20277e-07
-4.67786e-07
-4.70335e-07
-3.47668e-07
-6.30818e-07
-1.75293e-07
-7.66386e-07
-7.18635e-07
-5.13599e-08
3.65257e-07
-1.1306e-07
4.39794e-07
-1.72934e-07
4.31071e-07
-2.29814e-07
4.12286e-07
-2.83526e-07
3.8878e-07
-3.34247e-07
3.61521e-07
-3.82405e-07
3.31021e-07
-4.28577e-07
2.9734e-07
-4.73382e-07
2.60019e-07
-5.17343e-07
2.17977e-07
-5.60665e-07
1.6941e-07
-6.02823e-07
1.11584e-07
-6.4277e-07
4.06682e-08
-6.76343e-07
-5.22351e-08
-6.9472e-07
-1.73326e-07
-6.84452e-07
-3.30544e-07
-6.24415e-07
-5.30373e-07
-4.87927e-07
-7.67306e-07
-2.54415e-07
-9.99898e-07
-9.7305e-07
-5.74367e-08
4.22694e-07
-1.259e-07
5.08258e-07
-1.91521e-07
4.96692e-07
-2.53093e-07
4.73858e-07
-3.10658e-07
4.46345e-07
-3.64741e-07
4.15605e-07
-4.16208e-07
3.82488e-07
-4.66166e-07
3.47298e-07
-5.15887e-07
3.0974e-07
-5.6672e-07
2.6881e-07
-6.19946e-07
2.22636e-07
-6.76323e-07
1.67962e-07
-7.35241e-07
9.95858e-08
-7.97364e-07
9.88832e-09
-8.51015e-07
-1.19676e-07
-8.81147e-07
-3.00412e-07
-8.55279e-07
-5.5624e-07
-7.18462e-07
-9.04124e-07
-3.92807e-07
-1.32555e-06
-1.36586e-06
-6.52733e-08
4.87967e-07
-1.41955e-07
5.8494e-07
-2.14e-07
5.68736e-07
-2.80288e-07
5.40146e-07
-3.41239e-07
5.07296e-07
-3.97863e-07
4.72229e-07
-4.5157e-07
4.36195e-07
-5.04079e-07
3.99807e-07
-5.57413e-07
3.63074e-07
-6.13931e-07
3.25328e-07
-6.76348e-07
2.85054e-07
-7.47686e-07
2.39299e-07
-8.30518e-07
1.82417e-07
-9.25712e-07
1.05083e-07
-1.03293e-06
-1.24575e-08
-1.13589e-06
-1.97449e-07
-1.19258e-06
-4.99549e-07
-1.10111e-06
-9.956e-07
-6.51514e-07
-1.77515e-06
-2.01737e-06
-7.58598e-08
5.63827e-07
-1.62858e-07
6.71938e-07
-2.42e-07
6.47878e-07
-3.12707e-07
6.10853e-07
-3.76116e-07
5.70705e-07
-4.33926e-07
5.30038e-07
-4.88186e-07
4.90455e-07
-5.41254e-07
4.52875e-07
-5.95896e-07
4.17715e-07
-6.55501e-07
3.84933e-07
-7.24426e-07
3.53979e-07
-8.08343e-07
3.23216e-07
-9.14323e-07
2.88397e-07
-1.04981e-06
2.40568e-07
-1.22439e-06
1.6213e-07
-1.44396e-06
2.21185e-08
-1.65816e-06
-2.85347e-07
-1.70847e-06
-9.453e-07
-1.14565e-06
-2.33796e-06
-3.16302e-06
-9.17172e-08
6.55544e-07
-1.91539e-07
7.71759e-07
-2.78056e-07
7.34395e-07
-3.52305e-07
6.85102e-07
-4.16585e-07
6.34985e-07
-4.73572e-07
5.87025e-07
-5.26044e-07
5.42927e-07
-5.76917e-07
5.03747e-07
-6.29484e-07
4.70282e-07
-6.87882e-07
4.43331e-07
-7.57815e-07
4.23912e-07
-8.47751e-07
4.13153e-07
-9.70627e-07
4.11273e-07
-1.14569e-06
4.15628e-07
-1.39965e-06
4.16094e-07
-1.76147e-06
3.8394e-07
-2.23349e-06
1.86665e-07
-2.53396e-06
-6.44823e-07
-1.8755e-06
-2.99643e-06
-5.03852e-06
-1.14202e-07
7.69746e-07
-2.32327e-07
8.89884e-07
-3.26117e-07
8.28185e-07
-4.01777e-07
7.60762e-07
-4.64361e-07
6.9757e-07
-5.17781e-07
6.40446e-07
-5.65539e-07
5.90685e-07
-6.10882e-07
5.49091e-07
-6.57188e-07
5.16588e-07
-7.08581e-07
4.94724e-07
-7.71033e-07
4.86364e-07
-8.5436e-07
4.9648e-07
-9.75438e-07
5.3235e-07
-1.16465e-06
6.04838e-07
-1.47491e-06
7.26356e-07
-1.97056e-06
8.79589e-07
-2.60609e-06
8.22201e-07
-2.97108e-06
-2.79842e-07
-2.27269e-06
-3.69482e-06
-7.3112e-06
-1.63557e-07
9.33303e-07
-2.96821e-07
1.02315e-06
-3.91851e-07
9.23216e-07
-4.64552e-07
8.33463e-07
-5.21304e-07
7.54322e-07
-5.67509e-07
6.86651e-07
-6.0723e-07
6.30405e-07
-6.43609e-07
5.8547e-07
-6.79469e-07
5.52448e-07
-7.17876e-07
5.33132e-07
-7.63239e-07
5.31727e-07
-8.24352e-07
5.57593e-07
-9.17675e-07
6.25673e-07
-1.07557e-06
7.62731e-07
-1.34628e-06
9.97072e-07
-1.77744e-06
1.31075e-06
-2.29957e-06
1.34433e-06
-2.35014e-06
-2.29268e-07
-1.67501e-06
-4.36995e-06
-8.98621e-06
-2.1431e-07
1.14761e-06
-3.76406e-07
1.18524e-06
-4.73163e-07
1.01997e-06
-5.41022e-07
9.01323e-07
-5.90759e-07
8.04058e-07
-6.27441e-07
7.23333e-07
-6.56389e-07
6.59353e-07
-6.80668e-07
6.0975e-07
-7.01618e-07
5.73397e-07
-7.20099e-07
5.51613e-07
-7.36562e-07
5.48191e-07
-7.53076e-07
5.74106e-07
-7.70806e-07
6.43404e-07
-8.09964e-07
8.01889e-07
-8.9279e-07
1.0799e-06
-1.01721e-06
1.43517e-06
-1.24947e-06
1.57658e-06
-1.28764e-06
-1.91093e-07
-7.79868e-07
-4.87772e-06
-9.76608e-06
-4.73669e-07
1.62128e-06
-5.94099e-07
1.30567e-06
-6.32397e-07
1.05827e-06
-6.50627e-07
9.19553e-07
-6.60273e-07
8.13704e-07
-6.64771e-07
7.27832e-07
-6.67442e-07
6.62024e-07
-6.69718e-07
6.12026e-07
-6.70476e-07
5.74155e-07
-6.68611e-07
5.49748e-07
-6.50197e-07
5.29777e-07
-6.20098e-07
5.44008e-07
-5.48283e-07
5.71589e-07
-4.34995e-07
6.88601e-07
-2.55449e-07
9.00352e-07
-4.78883e-08
1.22761e-06
3.70876e-07
1.15782e-06
4.77656e-07
-2.97873e-07
4.36501e-07
-4.83656e-06
-9.32958e-06
-6.44238e-07
2.26552e-06
-5.80873e-07
1.24231e-06
-4.7234e-07
9.49738e-07
-3.82245e-07
8.29458e-07
-3.06031e-07
7.3749e-07
-2.34746e-07
6.56547e-07
-1.65869e-07
5.93146e-07
-9.87924e-08
5.4495e-07
-2.75133e-08
5.02876e-07
4.00053e-08
4.82229e-07
1.34352e-07
4.35431e-07
2.31145e-07
4.47214e-07
4.05446e-07
3.97288e-07
6.28716e-07
4.6533e-07
1.0797e-06
4.49371e-07
1.7454e-06
5.61908e-07
2.67773e-06
2.25488e-07
3.20768e-06
-8.27831e-07
2.34525e-06
-3.97413e-06
-6.98433e-06
2.26552e-06
3.50783e-06
4.45757e-06
5.28702e-06
6.02451e-06
6.68106e-06
7.27421e-06
7.81916e-06
8.32203e-06
8.80426e-06
9.23969e-06
9.68691e-06
1.00842e-05
1.05495e-05
1.09989e-05
1.15608e-05
1.17863e-05
1.09585e-05
6.98433e-06
)
;

boundaryField
{
    movingWall
    {
        type            calculated;
        value           uniform 0;
    }
    fixedWalls
    {
        type            calculated;
        value           uniform 0;
    }
    frontAndBack
    {
        type            empty;
        value           nonuniform 0();
    }
}


// ************************************************************************* //
