/*--------------------------------*- C++ -*----------------------------------*\
| =========                 |                                                 |
| \\      /  F ield         | OpenFOAM: The Open Source CFD Toolbox           |
|  \\    /   O peration     | Version:  5.0                                   |
|   \\  /    A nd           | Web:      www.OpenFOAM.org                      |
|    \\/     M anipulation  |                                                 |
\*---------------------------------------------------------------------------*/
FoamFile
{
    version     2.0;
    format      ascii;
    class       volVectorField;
    location    "0.5";
    object      U;
}
// * * * * * * * * * * * * * * * * * * * * * * * * * * * * * * * * * * * * * //

dimensions      [0 1 -1 0 0 0 0];

internalField   nonuniform List<vector> 
400
(
(-0.000214291 0.000211693 0)
(-0.000757689 0.000234993 0)
(-0.00131807 0.000232484 0)
(-0.00186479 0.000223961 0)
(-0.00238272 0.00021135 0)
(-0.00286234 0.000194657 0)
(-0.00329378 0.000173736 0)
(-0.00366659 0.000148201 0)
(-0.00397049 0.000117255 0)
(-0.00419484 8.00925e-05 0)
(-0.00432047 4.20967e-05 0)
(-0.00434927 -5.56948e-06 0)
(-0.0042581 -5.81563e-05 0)
(-0.00404213 -0.000114067 0)
(-0.00369533 -0.000171702 0)
(-0.00321756 -0.000228355 0)
(-0.00261577 -0.000280189 0)
(-0.00190567 -0.000322606 0)
(-0.00112423 -0.00034781 0)
(-0.000330759 -0.000325691 0)
(-0.000247749 0.000764063 0)
(-0.000949358 0.00091919 0)
(-0.00164885 0.00090588 0)
(-0.00232983 0.000866242 0)
(-0.00297101 0.000810448 0)
(-0.00356121 0.00073888 0)
(-0.00408864 0.000651158 0)
(-0.00454106 0.000546591 0)
(-0.00490604 0.000424081 0)
(-0.00517094 0.000282758 0)
(-0.0053218 0.00012375 0)
(-0.00534464 -5.33548e-05 0)
(-0.0052265 -0.000248179 0)
(-0.00495726 -0.000455043 0)
(-0.00452995 -0.000666859 0)
(-0.00394395 -0.000873619 0)
(-0.00320677 -0.00106242 0)
(-0.00233574 -0.00121702 0)
(-0.00137805 -0.00130629 0)
(-0.000377938 -0.00113916 0)
(-0.000258475 0.00136461 0)
(-0.000993729 0.00163977 0)
(-0.00172152 0.00161062 0)
(-0.00243275 0.00153727 0)
(-0.00310359 0.00143648 0)
(-0.00372263 0.00130843 0)
(-0.00427817 0.00115236 0)
(-0.00475807 0.000967115 0)
(-0.00514973 0.0007512 0)
(-0.00543993 0.000503354 0)
(-0.00561464 0.000223312 0)
(-0.00565883 -8.90846e-05 0)
(-0.00555644 -0.000431788 0)
(-0.00529336 -0.000797396 0)
(-0.00485976 -0.00117421 0)
(-0.00425134 -0.00154483 0)
(-0.00347249 -0.00188623 0)
(-0.00253963 -0.00216946 0)
(-0.00150631 -0.002339 0)
(-0.000414437 -0.0020424 0)
(-0.000269729 0.00199285 0)
(-0.00103849 0.00239524 0)
(-0.0017982 0.00235227 0)
(-0.00254253 0.00224532 0)
(-0.00324673 0.00209906 0)
(-0.00389971 0.00191402 0)
(-0.00449019 0.00168924 0)
(-0.00500648 0.00142305 0)
(-0.00543614 0.00111317 0)
(-0.00576557 0.000757205 0)
(-0.00597973 0.000353329 0)
(-0.00606214 -9.88415e-05 0)
(-0.00599273 -0.000598332 0)
(-0.00575148 -0.00113606 0)
(-0.00532221 -0.00169655 0)
(-0.00469335 -0.0022549 0)
(-0.00386296 -0.00277607 0)
(-0.00284418 -0.00321411 0)
(-0.00169695 -0.00348095 0)
(-0.000470004 -0.00304762 0)
(-0.000284298 0.00265233 0)
(-0.00109756 0.00318838 0)
(-0.001901 0.00313182 0)
(-0.00268961 0.00299139 0)
(-0.00343811 0.00280011 0)
(-0.00413607 0.00255908 0)
(-0.00477303 0.00226723 0)
(-0.00533814 0.00192229 0)
(-0.00581954 0.0015208 0)
(-0.00620359 0.00105852 0)
(-0.00647423 0.000531321 0)
(-0.00661374 -6.3447e-05 0)
(-0.00659656 -0.000727814 0)
(-0.0063941 -0.00145304 0)
(-0.00598078 -0.00222168 0)
(-0.00533293 -0.00300178 0)
(-0.00443696 -0.00374439 0)
(-0.0032981 -0.00438076 0)
(-0.00198298 -0.00477864 0)
(-0.000553641 -0.00420424 0)
(-0.000302625 0.00335263 0)
(-0.00117254 0.00403174 0)
(-0.00203163 0.00396131 0)
(-0.00287589 0.003787 0)
(-0.0036795 0.00355093 0)
(-0.00443307 0.00325505 0)
(-0.00512749 0.00289844 0)
(-0.00575344 0.00247814 0)
(-0.00630043 0.00198911 0)
(-0.00675554 0.00142441 0)
(-0.00710214 0.000776024 0)
(-0.00732173 3.61973e-05 0)
(-0.00738285 -0.000798685 0)
(-0.00724591 -0.00172876 0)
(-0.00687162 -0.00273711 0)
(-0.00621717 -0.00378688 0)
(-0.00524821 -0.00481382 0)
(-0.00395279 -0.00571829 0)
(-0.00240159 -0.00630484 0)
(-0.000677035 -0.00558588 0)
(-0.000325056 0.00410379 0)
(-0.0012644 0.00493786 0)
(-0.00219099 0.00485249 0)
(-0.00310185 0.00464307 0)
(-0.00397048 0.0043618 0)
(-0.00478901 0.00401213 0)
(-0.00555043 0.00359366 0)
(-0.00624798 0.00310297 0)
(-0.0068738 0.00253315 0)
(-0.00741722 0.00187381 0)
(-0.00786299 0.0011115 0)
(-0.008189 0.000231046 0)
(-0.00836226 -0.000778061 0)
(-0.00833337 -0.00192992 0)
(-0.00803991 -0.00321473 0)
(-0.00741133 -0.00459713 0)
(-0.00637753 -0.00599957 0)
(-0.00489106 -0.00728237 0)
(-0.00301509 -0.00815666 0)
(-0.000860034 -0.00729785 0)
(-0.000352304 0.00491677 0)
(-0.00137454 0.0059194 0)
(-0.00238093 0.00581686 0)
(-0.00336878 0.00556955 0)
(-0.004311 0.0052415 0)
(-0.00520182 0.00483859 0)
(-0.00603734 0.00436171 0)
(-0.00681471 0.00380742 0)
(-0.00753041 0.00316702 0)
(-0.00817805 0.00242613 0)
(-0.0087458 0.00156456 0)
(-0.00921224 0.000557581 0)
(-0.00954508 -0.00062075 0)
(-0.00968402 -0.00200426 0)
(-0.00954048 -0.00360168 0)
(-0.00900468 -0.00539323 0)
(-0.007947 -0.00729877 0)
(-0.00624956 -0.00913363 0)
(-0.00393274 -0.0104711 0)
(-0.00113795 -0.00950125 0)
(-0.000385419 0.00580402 0)
(-0.00150569 0.00699003 0)
(-0.00260513 0.00686593 0)
(-0.00367974 0.00657538 0)
(-0.00470221 0.00619678 0)
(-0.00566966 0.00573989 0)
(-0.00658258 0.0052081 0)
(-0.00744378 0.00459878 0)
(-0.00825632 0.00390203 0)
(-0.00902102 0.00309939 0)
(-0.00973297 0.00216285 0)
(-0.010376 0.0010546 0)
(-0.0109262 -0.000272571 0)
(-0.0113168 -0.00187427 0)
(-0.0114317 -0.00380688 0)
(-0.0111127 -0.0060886 0)
(-0.0101384 -0.00866614 0)
(-0.00825812 -0.011324 0)
(-0.00535566 -0.0134486 0)
(-0.00157808 -0.0124556 0)
(-0.000425997 0.0067806 0)
(-0.00166317 0.0081657 0)
(-0.00287033 0.00801155 0)
(-0.00404078 0.00766807 0)
(-0.00514751 0.0072315 0)
(-0.00619169 0.00671743 0)
(-0.00717982 0.00613335 0)
(-0.00812235 0.00547884 0)
(-0.00903158 0.004744 0)
(-0.00991923 0.00390741 0)
(-0.0107928 0.00293344 0)
(-0.0116504 0.00176933 0)
(-0.0124775 0.000342113 0)
(-0.0132228 -0.00142817 0)
(-0.0137599 -0.00368357 0)
(-0.0138712 -0.00651506 0)
(-0.0132144 -0.00996353 0)
(-0.0113112 -0.0138509 0)
(-0.00767079 -0.0173945 0)
(-0.002319 -0.0165966 0)
(-0.000477197 0.00786683 0)
(-0.00185624 0.00946591 0)
(-0.00318843 0.00926622 0)
(-0.00446294 0.00885323 0)
(-0.00565421 0.00834548 0)
(-0.00676941 0.00776686 0)
(-0.00782303 0.00713086 0)
(-0.00883527 0.006441 0)
(-0.00983024 0.00568946 0)
(-0.0108345 0.00485451 0)
(-0.0118745 0.00389622 0)
(-0.0129716 0.00274966 0)
(-0.0141295 0.00131553 0)
(-0.0153504 -0.000543145 0)
(-0.0165286 -0.00301459 0)
(-0.0174069 -0.00637188 0)
(-0.0175274 -0.0108601 0)
(-0.0160898 -0.0165328 0)
(-0.0116187 -0.0227703 0)
(-0.0037163 -0.022695 0)
(-0.000544794 0.00909121 0)
(-0.00210121 0.0109163 0)
(-0.00357981 0.0106435 0)
(-0.00496495 0.0101336 0)
(-0.00623565 0.00953294 0)
(-0.0074084 0.00887625 0)
(-0.00850811 0.00818458 0)
(-0.00956656 0.00746712 0)
(-0.0106214 0.00672074 0)
(-0.0117164 0.00592775 0)
(-0.0129025 0.00505052 0)
(-0.0142377 0.00402132 0)
(-0.0157796 0.00272487 0)
(-0.017567 0.000970716 0)
(-0.0196097 -0.00150133 0)
(-0.0217504 -0.00515976 0)
(-0.0234685 -0.0106698 0)
(-0.0236855 -0.0187829 0)
(-0.0182653 -0.0300192 0)
(-0.00715746 -0.0322004 0)
(-0.000638773 0.0105041 0)
(-0.00242526 0.0125517 0)
(-0.00407881 0.0121572 0)
(-0.00557714 0.0115071 0)
(-0.00691382 0.0107803 0)
(-0.00812043 0.0100239 0)
(-0.00923519 0.00926694 0)
(-0.0103026 0.00852493 0)
(-0.0113738 0.00780179 0)
(-0.0125099 0.0070894 0)
(-0.0137874 0.00636287 0)
(-0.0153065 0.0055695 0)
(-0.0171942 0.00460478 0)
(-0.0195999 0.00326602 0)
(-0.0227015 0.00117675 0)
(-0.0266551 -0.00228647 0)
(-0.0312719 -0.00826536 0)
(-0.035306 -0.0193232 0)
(-0.0290721 -0.0388847 0)
(-0.0155421 -0.0478131 0)
(-0.000784445 0.0121618 0)
(-0.0028869 0.0144287 0)
(-0.00474171 0.0138217 0)
(-0.00634565 0.0129624 0)
(-0.00772163 0.0120624 0)
(-0.00892495 0.0111763 0)
(-0.0100107 0.010338 0)
(-0.0110359 0.00956742 0)
(-0.0120619 0.00887651 0)
(-0.0131615 0.008272 0)
(-0.0144306 0.00775467 0)
(-0.0160079 0.00731192 0)
(-0.0181039 0.00689622 0)
(-0.0210341 0.00637536 0)
(-0.0252415 0.0054227 0)
(-0.0313369 0.00331537 0)
(-0.0403791 -0.00180691 0)
(-0.0510373 -0.0154597 0)
(-0.0448699 -0.0491098 0)
(-0.0260689 -0.0755241 0)
(-0.000981352 0.0142854 0)
(-0.00354294 0.0165634 0)
(-0.00566466 0.0156189 0)
(-0.00733841 0.0144714 0)
(-0.00870332 0.0133392 0)
(-0.00984878 0.0122864 0)
(-0.0108484 0.0113449 0)
(-0.0117689 0.0105336 0)
(-0.0126749 0.00986927 0)
(-0.0136388 0.00937488 0)
(-0.014757 0.0090854 0)
(-0.016179 0.00905235 0)
(-0.0181542 0.00933338 0)
(-0.0211201 0.00997182 0)
(-0.0258514 0.0109233 0)
(-0.0337982 0.0117017 0)
(-0.0471568 0.00906934 0)
(-0.0614832 -0.00912297 0)
(-0.0557179 -0.0664365 0)
(-0.0233729 -0.120537 0)
(-0.00158987 0.0168842 0)
(-0.00476145 0.0192449 0)
(-0.00700544 0.0176161 0)
(-0.00864587 0.0159825 0)
(-0.00990967 0.0145527 0)
(-0.0109186 0.0133004 0)
(-0.0117631 0.0122352 0)
(-0.0125125 0.0113647 0)
(-0.0132234 0.010704 0)
(-0.013951 0.0102886 0)
(-0.014763 0.0101948 0)
(-0.015778 0.0105688 0)
(-0.0172201 0.0116465 0)
(-0.0195007 0.0138274 0)
(-0.023356 0.0175608 0)
(-0.0305159 0.0224833 0)
(-0.0429758 0.0222195 0)
(-0.054462 -0.00468857 0)
(-0.0513895 -0.0870691 0)
(0.0013823 -0.172083 0)
(-0.0016899 0.0211005 0)
(-0.00638549 0.0216067 0)
(-0.00868373 0.0193094 0)
(-0.0102712 0.0173757 0)
(-0.0113951 0.0156144 0)
(-0.0122238 0.0141266 0)
(-0.0128592 0.0129173 0)
(-0.0133793 0.0119663 0)
(-0.0138226 0.0112746 0)
(-0.0141976 0.0108763 0)
(-0.014521 0.0108239 0)
(-0.0148106 0.0113549 0)
(-0.0150439 0.0127537 0)
(-0.0153242 0.0156975 0)
(-0.0158893 0.0207221 0)
(-0.0185672 0.0269811 0)
(-0.0257362 0.0273279 0)
(-0.0267559 -0.00710505 0)
(-0.038235 -0.100212 0)
(0.0212024 -0.203729 0)
(-0.00560108 0.026493 0)
(-0.0120404 0.0269355 0)
(-0.0124252 0.0222782 0)
(-0.0129538 0.0190272 0)
(-0.0131477 0.0167649 0)
(-0.0132719 0.0150043 0)
(-0.0133275 0.0136348 0)
(-0.0133646 0.0125706 0)
(-0.013389 0.0117735 0)
(-0.0133884 0.0112848 0)
(-0.0131871 0.0110863 0)
(-0.0126672 0.0115912 0)
(-0.0115926 0.0127419 0)
(-0.00965259 0.0160436 0)
(-0.00653926 0.0218867 0)
(-0.00138131 0.0301598 0)
(-0.00241422 0.0340237 0)
(0.0187202 0.00119893 0)
(-0.00759726 -0.111647 0)
(0.0364407 -0.215673 0)
(-0.00903905 0.040989 0)
(-0.0143488 0.0216047 0)
(-0.0101136 0.0169559 0)
(-0.00866569 0.0155251 0)
(-0.0069216 0.0139875 0)
(-0.00542955 0.0125263 0)
(-0.00400148 0.011424 0)
(-0.00263315 0.0106391 0)
(-0.00125177 0.0100589 0)
(4.45056e-05 0.00965792 0)
(0.00170679 0.00929655 0)
(0.00344579 0.00921485 0)
(0.00632282 0.00963405 0)
(0.0101919 0.0108539 0)
(0.0162637 0.0138506 0)
(0.0291883 0.0171196 0)
(0.0356915 0.0096054 0)
(0.0590599 -0.0174362 0)
(0.0502359 -0.0984881 0)
(0.0761797 -0.178886 0)
(0.0471206 0.0428361 0)
(0.0542346 0.0323378 0)
(0.0776553 0.0247581 0)
(0.0981055 0.0204224 0)
(0.113952 0.0177527 0)
(0.127581 0.0157047 0)
(0.139719 0.0140561 0)
(0.151172 0.0126894 0)
(0.161615 0.0113795 0)
(0.171173 0.0107946 0)
(0.18135 0.0090271 0)
(0.188666 0.00978042 0)
(0.199454 0.0069394 0)
(0.205781 0.00898166 0)
(0.214924 0.00546947 0)
(0.221797 0.00833333 0)
(0.2302 0.00267528 0)
(0.225536 -0.00434616 0)
(0.199989 -0.0212032 0)
(0.143251 -0.0320288 0)
)
;

boundaryField
{
    movingWall
    {
        type            fixedValue;
        value           uniform (1 0 0);
    }
    fixedWalls
    {
        type            noSlip;
    }
    frontAndBack
    {
        type            empty;
    }
}


// ************************************************************************* //
