/*--------------------------------*- C++ -*----------------------------------*\
| =========                 |                                                 |
| \\      /  F ield         | OpenFOAM: The Open Source CFD Toolbox           |
|  \\    /   O peration     | Version:  5.0                                   |
|   \\  /    A nd           | Web:      www.OpenFOAM.org                      |
|    \\/     M anipulation  |                                                 |
\*---------------------------------------------------------------------------*/
FoamFile
{
    version     2.0;
    format      ascii;
    class       volScalarField;
    location    "0.5";
    object      yPlus;
}
// * * * * * * * * * * * * * * * * * * * * * * * * * * * * * * * * * * * * * //

dimensions      [0 0 0 0 0 0 0];

internalField   uniform 0;

boundaryField
{
    movingWall
    {
        type            calculated;
        value           nonuniform List<scalar> 
20
(
15.4422
15.3811
15.1878
15.0177
14.8848
14.7696
14.6663
14.5681
14.4781
14.3953
14.3065
14.2425
14.1472
14.0914
14.0098
13.9485
13.8727
13.9147
14.1447
14.6402
)
;
    }
    fixedWalls
    {
        type            calculated;
        value           nonuniform List<scalar> 
60
(
0.274418
0.448114
0.589252
0.709052
0.816628
0.917369
1.01448
1.11011
1.2059
1.30326
1.40368
1.50893
1.622
1.7455
1.89203
2.05906
2.30044
2.60186
3.23936
3.99002
0.340659
0.547772
0.721807
0.878016
1.02963
1.18604
1.35539
1.5467
1.77166
2.04682
2.39777
2.87168
3.54527
4.46925
5.54036
6.55913
7.15593
7.39476
6.97193
6.0578
0.274418
0.445335
0.57845
0.685235
0.773317
0.846899
0.908069
0.957808
0.996522
1.02416
1.03931
1.04275
1.03181
1.00545
0.96168
0.898005
0.810977
0.695123
0.542403
0.340659
)
;
    }
    frontAndBack
    {
        type            empty;
    }
}


// ************************************************************************* //
