/*--------------------------------*- C++ -*----------------------------------*\
| =========                 |                                                 |
| \\      /  F ield         | OpenFOAM: The Open Source CFD Toolbox           |
|  \\    /   O peration     | Version:  5.0                                   |
|   \\  /    A nd           | Web:      www.OpenFOAM.org                      |
|    \\/     M anipulation  |                                                 |
\*---------------------------------------------------------------------------*/
FoamFile
{
    version     2.0;
    format      ascii;
    class       volScalarField;
    location    "6";
    object      p;
}
// * * * * * * * * * * * * * * * * * * * * * * * * * * * * * * * * * * * * * //

dimensions      [0 2 -2 0 0 0 0];

internalField   nonuniform List<scalar> 
400
(
3.49713e-08
-8.55769e-05
-0.000249773
-0.000201275
-0.000684072
-0.00205921
-0.00388823
-0.00563246
-0.00706737
-0.0080421
-0.00851787
-0.00845368
-0.0078425
-0.0065814
-0.00456715
-0.00173647
0.00187004
0.00581407
0.0087561
0.0100911
5.0812e-05
-2.74778e-05
-0.000197634
-0.000703589
-0.00172831
-0.00324723
-0.00490154
-0.00652496
-0.00785561
-0.00876878
-0.00920523
-0.00915356
-0.00860001
-0.00750141
-0.00579674
-0.00340591
-0.000284596
0.00341706
0.0067296
0.00876213
0.000297236
-1.18044e-05
-0.000665346
-0.00177849
-0.00332141
-0.00498848
-0.00663363
-0.00816302
-0.00931725
-0.0100795
-0.0103902
-0.0102312
-0.0096217
-0.00859697
-0.00717639
-0.00534278
-0.00296838
3.71873e-05
0.00322471
0.00552048
0.000217102
-0.00037804
-0.00159113
-0.0033194
-0.00520728
-0.00695672
-0.00843024
-0.0095771
-0.0104465
-0.0110074
-0.0111971
-0.0110053
-0.010432
-0.00951358
-0.00830098
-0.00686235
-0.00518499
-0.00297541
-0.000349041
0.0017655
-0.000496879
-0.00132122
-0.00298019
-0.00505761
-0.00698605
-0.00853553
-0.00972221
-0.0106476
-0.0113763
-0.0118694
-0.0120492
-0.0118735
-0.0113441
-0.0105024
-0.00942666
-0.00820311
-0.00694587
-0.00538693
-0.00355062
-0.00168701
-0.00184025
-0.00275414
-0.00458344
-0.00667022
-0.00843282
-0.00970801
-0.0106549
-0.0114607
-0.0121328
-0.0126226
-0.0128398
-0.0127177
-0.0122605
-0.0115008
-0.0105393
-0.00944069
-0.00843072
-0.00728975
-0.0060383
-0.00453052
-0.00343443
-0.00433225
-0.00608446
-0.00800484
-0.00953319
-0.0105448
-0.0113359
-0.0120591
-0.0127019
-0.0132061
-0.0134752
-0.013421
-0.0130473
-0.0123676
-0.0115015
-0.0104901
-0.0096241
-0.00871842
-0.0078818
-0.00668969
-0.0048953
-0.00570796
-0.00727275
-0.00899682
-0.0103009
-0.0111045
-0.0117827
-0.012437
-0.0130525
-0.0135647
-0.0138782
-0.0138851
-0.0135868
-0.012981
-0.0121981
-0.0112359
-0.0104878
-0.0096718
-0.00913213
-0.00818673
-0.00596409
-0.00669715
-0.00807929
-0.00962479
-0.0107514
-0.0114188
-0.0120034
-0.0125884
-0.0131582
-0.01365
-0.0139747
-0.0140129
-0.0137665
-0.0132158
-0.0125197
-0.0115888
-0.0109827
-0.0101612
-0.00991804
-0.00907877
-0.0065735
-0.00723514
-0.00847549
-0.00989441
-0.0109106
-0.0115077
-0.0120202
-0.0125299
-0.0130311
-0.0134735
-0.0137795
-0.0138255
-0.0136116
-0.013111
-0.0124661
-0.0115762
-0.011118
-0.0102255
-0.0102883
-0.00946701
-0.00670215
-0.00732486
-0.00848024
-0.00983742
-0.0108165
-0.011411
-0.0118708
-0.0122993
-0.012713
-0.0130785
-0.0133335
-0.0133659
-0.0131666
-0.0127102
-0.0120879
-0.0112919
-0.010892
-0.00996334
-0.010315
-0.00942049
-0.00639206
-0.00701361
-0.00813007
-0.00948546
-0.0105163
-0.011154
-0.011587
-0.0119436
-0.0122667
-0.0125381
-0.0127198
-0.0127155
-0.0125095
-0.012082
-0.0114974
-0.010786
-0.0103917
-0.00946593
-0.0100559
-0.00901625
-0.00576928
-0.00643277
-0.00753455
-0.00885925
-0.010017
-0.0107437
-0.0111997
-0.0115196
-0.0117745
-0.0119614
-0.0120655
-0.012013
-0.0117814
-0.0113618
-0.0108034
-0.0101408
-0.00973063
-0.00879883
-0.00960567
-0.00827789
-0.00507777
-0.00574317
-0.00677546
-0.00799437
-0.0092572
-0.0101387
-0.0106999
-0.011051
-0.0112853
-0.0114177
-0.0114546
-0.0113538
-0.0110908
-0.0106601
-0.0101047
-0.00945858
-0.00900697
-0.00805565
-0.00895717
-0.00720397
-0.00454051
-0.00508505
-0.00592265
-0.00695621
-0.00819697
-0.00927296
-0.0100471
-0.0105228
-0.0108044
-0.0109303
-0.0109284
-0.0107876
-0.0104922
-0.0100358
-0.00945737
-0.00878335
-0.00823703
-0.00726204
-0.00808673
-0.00579249
-0.00436863
-0.00456562
-0.00498807
-0.00573342
-0.00685851
-0.00809391
-0.00912404
-0.00984251
-0.0102673
-0.0104541
-0.0104607
-0.0102965
-0.00996823
-0.00947454
-0.00884246
-0.00809385
-0.00738625
-0.00640295
-0.00693837
-0.00402898
-0.00441095
-0.00416853
-0.00398748
-0.00435499
-0.00532965
-0.0066331
-0.00789653
-0.00888617
-0.00954943
-0.00990002
-0.00998191
-0.0098306
-0.00947795
-0.008935
-0.00822293
-0.00735239
-0.00642732
-0.0053985
-0.00545398
-0.00170703
-0.00417459
-0.00356482
-0.00286857
-0.00288913
-0.00372948
-0.00506584
-0.00649921
-0.00771175
-0.00860584
-0.00914809
-0.00935384
-0.00926902
-0.00894049
-0.00837592
-0.00758346
-0.00657737
-0.00540945
-0.00414749
-0.00307565
0.00279882
-0.00365172
-0.00279155
-0.00183816
-0.0017284
-0.00249404
-0.00382922
-0.00536349
-0.00675687
-0.0078369
-0.00854599
-0.00887841
-0.00887048
-0.00856621
-0.00798163
-0.00713481
-0.006006
-0.00456156
-0.00229532
0.00261707
0.0152237
-0.00507539
-0.00202256
-0.000886379
-0.00096271
-0.001705
-0.00303649
-0.00461491
-0.00616468
-0.00739292
-0.00822582
-0.00864164
-0.00869641
-0.00842576
-0.0078629
-0.00694794
-0.00559609
-0.00301075
0.00305722
0.0167689
0.0396252
)
;

boundaryField
{
    movingWall
    {
        type            zeroGradient;
    }
    fixedWalls
    {
        type            zeroGradient;
    }
    frontAndBack
    {
        type            empty;
    }
}


// ************************************************************************* //
