/*--------------------------------*- C++ -*----------------------------------*\
| =========                 |                                                 |
| \\      /  F ield         | OpenFOAM: The Open Source CFD Toolbox           |
|  \\    /   O peration     | Version:  5.0                                   |
|   \\  /    A nd           | Web:      www.OpenFOAM.org                      |
|    \\/     M anipulation  |                                                 |
\*---------------------------------------------------------------------------*/
FoamFile
{
    version     2.0;
    format      ascii;
    class       surfaceScalarField;
    location    "6";
    object      phi;
}
// * * * * * * * * * * * * * * * * * * * * * * * * * * * * * * * * * * * * * //

dimensions      [0 3 -1 0 0 0 0];

internalField   nonuniform List<scalar> 
760
(
2.42033e-07
-2.42037e-07
1.69037e-07
7.29966e-08
-4.23653e-07
5.92689e-07
-1.73432e-06
1.31067e-06
-3.40159e-06
1.66726e-06
-4.86254e-06
1.46095e-06
-6.08615e-06
1.22361e-06
-6.99048e-06
9.04333e-07
-7.68158e-06
6.91096e-07
-8.14186e-06
4.60285e-07
-8.41827e-06
2.76411e-07
-8.49782e-06
7.95524e-08
-8.41085e-06
-8.69771e-08
-8.13612e-06
-2.74732e-07
-7.67232e-06
-4.63799e-07
-6.89162e-06
-7.80701e-07
-5.69684e-06
-1.19478e-06
-3.89176e-06
-1.80508e-06
-1.63761e-06
-2.25415e-06
-1.63761e-06
-2.53949e-07
1.19118e-08
-1.12674e-06
9.45787e-07
-2.65773e-06
2.12368e-06
-4.26241e-06
2.91535e-06
-5.40191e-06
2.80676e-06
-6.37722e-06
2.43627e-06
-7.11689e-06
1.96327e-06
-7.73223e-06
1.51968e-06
-8.15969e-06
1.11855e-06
-8.41365e-06
7.14253e-07
-8.49834e-06
3.61096e-07
-8.39654e-06
-2.22451e-08
-8.19283e-06
-2.90686e-07
-7.8608e-06
-6.06763e-07
-7.37239e-06
-9.52205e-07
-6.72511e-06
-1.42798e-06
-5.77458e-06
-2.14531e-06
-4.34621e-06
-3.23345e-06
-2.26075e-06
-4.33962e-06
-3.89836e-06
-8.92603e-07
9.04515e-07
-2.30443e-06
2.35762e-06
-3.74058e-06
3.55983e-06
-4.80885e-06
3.98362e-06
-5.59183e-06
3.58974e-06
-6.17859e-06
3.02303e-06
-6.51123e-06
2.29592e-06
-6.70192e-06
1.71036e-06
-6.69147e-06
1.1081e-06
-6.64129e-06
6.64078e-07
-6.52859e-06
2.48397e-07
-6.42125e-06
-1.29587e-07
-6.16455e-06
-5.4739e-07
-5.83559e-06
-9.35721e-07
-5.40661e-06
-1.38118e-06
-4.91932e-06
-1.91527e-06
-4.37952e-06
-2.68512e-06
-3.57926e-06
-4.03371e-06
-2.16483e-06
-5.75405e-06
-6.06319e-06
-1.23008e-06
2.1346e-06
-2.65743e-06
3.78496e-06
-3.79458e-06
4.69697e-06
-4.51359e-06
4.70263e-06
-4.91944e-06
3.99559e-06
-5.03397e-06
3.13756e-06
-5.01424e-06
2.27619e-06
-4.99743e-06
1.69355e-06
-5.03882e-06
1.14948e-06
-5.07546e-06
7.00715e-07
-5.04005e-06
2.12988e-07
-4.90589e-06
-2.63746e-07
-4.68329e-06
-7.69986e-07
-4.35144e-06
-1.26757e-06
-3.92106e-06
-1.81157e-06
-3.4479e-06
-2.38842e-06
-3.00682e-06
-3.1262e-06
-2.52052e-06
-4.52001e-06
-1.6329e-06
-6.64167e-06
-7.69608e-06
-1.24597e-06
3.38057e-06
-2.43067e-06
4.96966e-06
-3.22181e-06
5.48811e-06
-3.65879e-06
5.13962e-06
-3.77471e-06
4.11151e-06
-3.75813e-06
3.12098e-06
-3.79434e-06
2.31239e-06
-3.90174e-06
1.80096e-06
-4.02411e-06
1.27186e-06
-4.12484e-06
8.01439e-07
-4.1342e-06
2.22348e-07
-4.03722e-06
-3.60723e-07
-3.8163e-06
-9.90912e-07
-3.46894e-06
-1.61493e-06
-3.04597e-06
-2.23454e-06
-2.57078e-06
-2.86361e-06
-2.14283e-06
-3.55414e-06
-1.86761e-06
-4.79523e-06
-1.27409e-06
-7.23519e-06
-8.97017e-06
-1.03684e-06
4.41741e-06
-1.89934e-06
5.83215e-06
-2.45476e-06
6.04354e-06
-2.70627e-06
5.39112e-06
-2.74619e-06
4.15143e-06
-2.72784e-06
3.10263e-06
-2.81532e-06
2.39987e-06
-2.95773e-06
1.94336e-06
-3.11118e-06
1.42532e-06
-3.2231e-06
9.13356e-07
-3.25981e-06
2.5906e-07
-3.19755e-06
-4.22987e-07
-3.02357e-06
-1.16489e-06
-2.72001e-06
-1.91849e-06
-2.32196e-06
-2.63259e-06
-1.88703e-06
-3.29854e-06
-1.4615e-06
-3.97968e-06
-1.1687e-06
-5.08803e-06
-9.35677e-07
-7.46821e-06
-9.90585e-06
-7.38526e-07
5.15594e-06
-1.32254e-06
6.41617e-06
-1.69502e-06
6.41602e-06
-1.83848e-06
5.53458e-06
-1.85318e-06
4.16614e-06
-1.84986e-06
3.0993e-06
-1.93969e-06
2.48971e-06
-2.05884e-06
2.06251e-06
-2.19266e-06
1.55914e-06
-2.2911e-06
1.01179e-06
-2.34329e-06
3.11247e-07
-2.31451e-06
-4.51758e-07
-2.20968e-06
-1.26973e-06
-2.01012e-06
-2.11804e-06
-1.70648e-06
-2.93624e-06
-1.37466e-06
-3.63036e-06
-1.05628e-06
-4.29806e-06
-8.64666e-07
-5.27965e-06
-7.06576e-07
-7.6263e-06
-1.06124e-05
-4.13608e-07
5.56955e-06
-7.79667e-07
6.78223e-06
-1.0207e-06
6.65706e-06
-1.10744e-06
5.62131e-06
-1.10425e-06
4.16295e-06
-1.08815e-06
3.0832e-06
-1.12515e-06
2.52671e-06
-1.18129e-06
2.11865e-06
-1.2614e-06
1.63926e-06
-1.3272e-06
1.07759e-06
-1.37389e-06
3.57928e-07
-1.36557e-06
-4.60079e-07
-1.31475e-06
-1.32054e-06
-1.21762e-06
-2.21517e-06
-1.06171e-06
-3.09215e-06
-8.47808e-07
-3.84426e-06
-6.32429e-07
-4.51344e-06
-5.04957e-07
-5.40712e-06
-5.14923e-07
-7.61634e-06
-1.11273e-05
-1.46565e-07
5.71611e-06
-3.21593e-07
6.95726e-06
-4.31131e-07
6.76659e-06
-4.83495e-07
5.67368e-06
-4.66459e-07
4.14591e-06
-4.31749e-07
3.04849e-06
-3.95712e-07
2.49067e-06
-3.74104e-07
2.09704e-06
-3.85058e-07
1.65021e-06
-4.07315e-07
1.09985e-06
-4.38521e-07
3.89134e-07
-4.54612e-07
-4.43988e-07
-4.4094e-07
-1.33421e-06
-4.35542e-07
-2.22057e-06
-4.18342e-07
-3.10935e-06
-3.72845e-07
-3.88975e-06
-3.28121e-07
-4.55816e-06
-3.16469e-07
-5.41877e-06
-3.67697e-07
-7.56511e-06
-1.1495e-05
1.26898e-07
5.58922e-06
1.13127e-07
6.97103e-06
8.23532e-08
6.79737e-06
4.98171e-08
5.70621e-06
7.58045e-08
4.11992e-06
1.18637e-07
3.00566e-06
2.1635e-07
2.39296e-06
3.19964e-07
1.99343e-06
3.93731e-07
1.57644e-06
4.30523e-07
1.06306e-06
4.22206e-07
3.97451e-07
3.75661e-07
-3.97442e-07
3.31807e-07
-1.29036e-06
2.60932e-07
-2.1497e-06
1.94694e-07
-3.04311e-06
4.83596e-08
-3.74342e-06
3.65442e-08
-4.54634e-06
-1.17998e-07
-5.26423e-06
-2.77002e-07
-7.4061e-06
-1.1772e-05
3.54347e-07
5.23487e-06
5.18787e-07
6.80659e-06
6.21321e-07
6.69483e-06
5.63859e-07
5.76367e-06
5.27468e-07
4.15631e-06
5.73436e-07
2.95969e-06
7.12979e-07
2.25342e-06
8.86531e-07
1.81987e-06
1.03792e-06
1.42505e-06
1.13839e-06
9.62589e-07
1.16656e-06
3.6929e-07
1.11992e-06
-3.50807e-07
1.01364e-06
-1.18408e-06
8.83301e-07
-2.01936e-06
6.69726e-07
-2.82954e-06
4.59066e-07
-3.53276e-06
2.34266e-07
-4.32154e-06
-4.24787e-08
-4.98748e-06
-1.99299e-07
-7.24928e-06
-1.19713e-05
5.80875e-07
4.65399e-06
9.07915e-07
6.47955e-06
1.1018e-06
6.50095e-06
1.07252e-06
5.79295e-06
9.77534e-07
4.2513e-06
9.79211e-07
2.95801e-06
1.10224e-06
2.13039e-06
1.29931e-06
1.62281e-06
1.49695e-06
1.2274e-06
1.64465e-06
8.14896e-07
1.71566e-06
2.98274e-07
1.69443e-06
-3.29577e-07
1.56586e-06
-1.05551e-06
1.36462e-06
-1.81811e-06
1.07927e-06
-2.54419e-06
7.67242e-07
-3.22073e-06
4.33276e-07
-3.98758e-06
1.21357e-07
-4.67556e-06
-1.26486e-07
-7.00144e-06
-1.20978e-05
8.02596e-07
3.8514e-06
1.25352e-06
6.02862e-06
1.55886e-06
6.19561e-06
1.63209e-06
5.71973e-06
1.47855e-06
4.40484e-06
1.41252e-06
3.02405e-06
1.46963e-06
2.07328e-06
1.62919e-06
1.46325e-06
1.82418e-06
1.03241e-06
1.98916e-06
6.49923e-07
2.07667e-06
2.10765e-07
2.06907e-06
-3.21982e-07
1.93425e-06
-9.20686e-07
1.69664e-06
-1.5805e-06
1.35808e-06
-2.20563e-06
9.76769e-07
-2.83943e-06
5.60363e-07
-3.57117e-06
1.61786e-07
-4.27699e-06
-6.89567e-08
-6.7707e-06
-1.21668e-05
9.88835e-07
2.86256e-06
1.60395e-06
5.4135e-06
1.97693e-06
5.82263e-06
2.17388e-06
5.52278e-06
2.06083e-06
4.51788e-06
1.92507e-06
3.15981e-06
1.87918e-06
2.11917e-06
1.9433e-06
1.39913e-06
2.07662e-06
8.99085e-07
2.2223e-06
5.04247e-07
2.30557e-06
1.27498e-07
2.29727e-06
-3.13691e-07
2.16165e-06
-7.85062e-07
1.91131e-06
-1.33017e-06
1.55084e-06
-1.84515e-06
1.15031e-06
-2.4389e-06
7.01654e-07
-3.12251e-06
2.85601e-07
-3.86093e-06
3.22417e-08
-6.51734e-06
-1.21345e-05
1.1216e-06
1.74096e-06
1.80564e-06
4.72946e-06
2.30536e-06
5.32291e-06
2.69654e-06
5.1316e-06
2.7733e-06
4.44113e-06
2.64744e-06
3.28566e-06
2.51839e-06
2.24822e-06
2.45166e-06
1.46586e-06
2.45186e-06
8.98884e-07
2.50026e-06
4.55838e-07
2.52561e-06
1.02158e-07
2.48783e-06
-2.75912e-07
2.3406e-06
-6.37833e-07
2.0922e-06
-1.08176e-06
1.73503e-06
-1.48799e-06
1.33593e-06
-2.0398e-06
8.52228e-07
-2.63881e-06
3.76419e-07
-3.38512e-06
1.35324e-07
-6.27624e-06
-1.19992e-05
9.88268e-07
7.52694e-07
1.82197e-06
3.89576e-06
2.47327e-06
4.67161e-06
3.068e-06
4.53687e-06
3.4218e-06
4.08733e-06
3.4902e-06
3.21726e-06
3.41778e-06
2.32065e-06
3.31128e-06
1.57236e-06
3.19753e-06
1.01264e-06
3.10729e-06
5.46072e-07
3.01228e-06
1.97166e-07
2.89697e-06
-1.60597e-07
2.69988e-06
-4.40744e-07
2.43429e-06
-8.16177e-07
2.07787e-06
-1.13156e-06
1.69283e-06
-1.65477e-06
1.15474e-06
-2.10072e-06
6.51927e-07
-2.88231e-06
3.53815e-07
-5.97813e-06
-1.16454e-05
4.76697e-07
2.75997e-07
1.49149e-06
2.88097e-06
2.40977e-06
3.75333e-06
3.23125e-06
3.71539e-06
3.87636e-06
3.44222e-06
4.24981e-06
2.8438e-06
4.39403e-06
2.17643e-06
4.41838e-06
1.54801e-06
4.35998e-06
1.07104e-06
4.2544e-06
6.51654e-07
4.08044e-06
3.71131e-07
3.84787e-06
7.19713e-08
3.55644e-06
-1.4932e-07
3.21579e-06
-4.75521e-07
2.7811e-06
-6.96873e-07
2.26652e-06
-1.14018e-06
1.59546e-06
-1.42966e-06
9.90781e-07
-2.27763e-06
6.75032e-07
-5.66238e-06
-1.09704e-05
-2.74844e-07
5.50841e-07
8.28657e-07
1.77747e-06
1.91856e-06
2.66343e-06
3.00609e-06
2.62785e-06
3.92981e-06
2.51851e-06
4.62597e-06
2.14764e-06
5.063e-06
1.73941e-06
5.31716e-06
1.29385e-06
5.40447e-06
9.83735e-07
5.37876e-06
6.77358e-07
5.25054e-06
4.99352e-07
5.03993e-06
2.82579e-07
4.7358e-06
1.54813e-07
4.30783e-06
-4.75475e-08
3.7955e-06
-1.84549e-07
3.1039e-06
-4.4858e-07
2.33212e-06
-6.57881e-07
1.74052e-06
-1.68603e-06
1.26844e-06
-5.1903e-06
-9.70194e-06
-1.13547e-06
1.68631e-06
-3.11127e-07
9.53126e-07
1.08096e-06
1.27134e-06
2.41353e-06
1.29529e-06
3.59975e-06
1.33228e-06
4.56303e-06
1.18436e-06
5.24569e-06
1.05675e-06
5.70604e-06
8.33498e-07
5.96601e-06
7.23767e-07
6.07377e-06
5.69595e-07
6.05535e-06
5.17774e-07
5.93049e-06
4.07438e-07
5.70635e-06
3.7895e-07
5.38223e-06
2.76571e-07
4.96706e-06
2.30623e-07
4.45743e-06
6.10517e-08
3.99228e-06
-1.92737e-07
3.58549e-06
-1.27924e-06
2.52313e-06
-4.12794e-06
-7.17881e-06
1.68631e-06
2.63944e-06
3.91078e-06
5.20606e-06
6.53835e-06
7.7227e-06
8.77945e-06
9.61295e-06
1.03367e-05
1.09063e-05
1.14241e-05
1.18315e-05
1.22105e-05
1.2487e-05
1.27177e-05
1.27787e-05
1.2586e-05
1.13067e-05
7.17881e-06
)
;

boundaryField
{
    movingWall
    {
        type            calculated;
        value           uniform 0;
    }
    fixedWalls
    {
        type            calculated;
        value           uniform 0;
    }
    frontAndBack
    {
        type            empty;
        value           nonuniform 0();
    }
}


// ************************************************************************* //
