/*--------------------------------*- C++ -*----------------------------------*\
| =========                 |                                                 |
| \\      /  F ield         | OpenFOAM: The Open Source CFD Toolbox           |
|  \\    /   O peration     | Version:  5.0                                   |
|   \\  /    A nd           | Web:      www.OpenFOAM.org                      |
|    \\/     M anipulation  |                                                 |
\*---------------------------------------------------------------------------*/
FoamFile
{
    version     2.0;
    format      ascii;
    class       volVectorField;
    location    "6";
    object      U;
}
// * * * * * * * * * * * * * * * * * * * * * * * * * * * * * * * * * * * * * //

dimensions      [0 1 -1 0 0 0 0];

internalField   nonuniform List<vector> 
400
(
(0.00221904 -0.00382617 0)
(0.00745491 -0.00248392 0)
(-0.00163229 0.000958546 0)
(-0.01292 0.00814742 0)
(-0.0532545 0.0176055 0)
(-0.0875889 0.0147462 0)
(-0.113208 0.0134348 0)
(-0.134265 0.01132 0)
(-0.148634 0.00922419 0)
(-0.160163 0.00741828 0)
(-0.166569 0.00533972 0)
(-0.170234 0.00390986 0)
(-0.17112 0.00173632 0)
(-0.167554 -0.00072128 0)
(-0.159605 -0.00326466 0)
(-0.145466 -0.00764446 0)
(-0.123769 -0.0127903 0)
(-0.093234 -0.0188507 0)
(-0.0565247 -0.0184727 0)
(-0.0116553 -0.00574707 0)
(-0.000293967 -0.00659434 0)
(-0.00962369 0.00577689 0)
(-0.0333517 0.0251843 0)
(-0.0704098 0.045431 0)
(-0.100641 0.0453259 0)
(-0.120816 0.0396469 0)
(-0.13711 0.0331732 0)
(-0.150904 0.0234449 0)
(-0.160474 0.0173289 0)
(-0.167353 0.00994876 0)
(-0.170149 0.00481399 0)
(-0.170694 -0.0013862 0)
(-0.167468 -0.00609845 0)
(-0.16284 -0.0122402 0)
(-0.153955 -0.0183689 0)
(-0.141976 -0.0281235 0)
(-0.123366 -0.040945 0)
(-0.0982916 -0.0599961 0)
(-0.0676491 -0.0762115 0)
(-0.0173881 -0.0557145 0)
(-0.00566155 0.00742709 0)
(-0.0292766 0.0343926 0)
(-0.0609364 0.0586031 0)
(-0.0895674 0.0693214 0)
(-0.107447 0.063651 0)
(-0.119198 0.0543857 0)
(-0.129266 0.0414008 0)
(-0.13416 0.03259 0)
(-0.134122 0.0230752 0)
(-0.13459 0.015105 0)
(-0.132097 0.00718258 0)
(-0.130021 -4.44166e-05 0)
(-0.126312 -0.00715347 0)
(-0.120586 -0.0140391 0)
(-0.113821 -0.0223854 0)
(-0.10517 -0.0332213 0)
(-0.0935987 -0.0510341 0)
(-0.0758947 -0.0780511 0)
(-0.0590789 -0.107748 0)
(-0.020123 -0.109882 0)
(-0.00947932 0.0309399 0)
(-0.0390369 0.062502 0)
(-0.0688652 0.0835485 0)
(-0.0873061 0.0860795 0)
(-0.0977318 0.0750973 0)
(-0.101794 0.061271 0)
(-0.100671 0.0463015 0)
(-0.0983508 0.0340358 0)
(-0.101163 0.0225297 0)
(-0.101863 0.0133551 0)
(-0.102397 0.00416979 0)
(-0.100148 -0.00415871 0)
(-0.0961109 -0.0129665 0)
(-0.0902306 -0.0213332 0)
(-0.0823242 -0.0303809 0)
(-0.0749771 -0.0406495 0)
(-0.0668602 -0.0560528 0)
(-0.0510457 -0.0869139 0)
(-0.0439307 -0.127644 0)
(-0.0150223 -0.140636 0)
(-0.00919427 0.0542911 0)
(-0.0402743 0.0870972 0)
(-0.0606986 0.100619 0)
(-0.073537 0.0972227 0)
(-0.076493 0.0809338 0)
(-0.0746072 0.06335 0)
(-0.0733244 0.0468381 0)
(-0.0763884 0.0353291 0)
(-0.0798755 0.0243594 0)
(-0.0829526 0.0146513 0)
(-0.0837965 0.00370694 0)
(-0.0825574 -0.00710176 0)
(-0.0784777 -0.0188685 0)
(-0.0726604 -0.0302199 0)
(-0.06422 -0.0417807 0)
(-0.0553073 -0.0531986 0)
(-0.0507951 -0.0660078 0)
(-0.0337719 -0.091585 0)
(-0.038393 -0.142031 0)
(-0.00620856 -0.17127 0)
(-0.00785825 0.0766347 0)
(-0.0335408 0.107377 0)
(-0.0467164 0.11454 0)
(-0.0562366 0.105196 0)
(-0.0547419 0.0835881 0)
(-0.05258 0.0633419 0)
(-0.053599 0.0477412 0)
(-0.0579702 0.0380281 0)
(-0.0612774 0.0270431 0)
(-0.0651444 0.0169535 0)
(-0.0657587 0.0045449 0)
(-0.0654678 -0.00813968 0)
(-0.0619606 -0.0221913 0)
(-0.0572056 -0.0362096 0)
(-0.0502034 -0.0496819 0)
(-0.0396891 -0.062962 0)
(-0.0383645 -0.0761568 0)
(-0.0192304 -0.0988258 0)
(-0.0288777 -0.146213 0)
(-0.00325722 -0.189019 0)
(-0.00577352 0.0953795 0)
(-0.0243748 0.121477 0)
(-0.0323672 0.123798 0)
(-0.0394318 0.109033 0)
(-0.0361238 0.0836109 0)
(-0.0349694 0.0625263 0)
(-0.0368021 0.0492684 0)
(-0.040349 0.0401657 0)
(-0.0430839 0.0296222 0)
(-0.0464327 0.0188076 0)
(-0.0471515 0.00519999 0)
(-0.0472916 -0.00953388 0)
(-0.0450303 -0.0257274 0)
(-0.0415266 -0.0422208 0)
(-0.0380605 -0.0575524 0)
(-0.0272468 -0.0711098 0)
(-0.0297515 -0.0841237 0)
(-0.0111369 -0.104927 0)
(-0.0257247 -0.151836 0)
(0.00175295 -0.206868 0)
(-0.00261809 0.10705 0)
(-0.0145311 0.13198 0)
(-0.0195227 0.13125 0)
(-0.0245658 0.112446 0)
(-0.0209672 0.0842928 0)
(-0.0205169 0.0626446 0)
(-0.0215656 0.0509204 0)
(-0.0233027 0.0421582 0)
(-0.0249047 0.0320705 0)
(-0.0270046 0.0207742 0)
(-0.0277048 0.00655511 0)
(-0.0278998 -0.00935776 0)
(-0.0269301 -0.0265765 0)
(-0.0240493 -0.0445344 0)
(-0.0247713 -0.0620234 0)
(-0.0149758 -0.0763127 0)
(-0.0209441 -0.0892926 0)
(-0.00236831 -0.107078 0)
(-0.0202765 -0.151762 0)
(0.00319171 -0.216559 0)
(0.000250867 0.114146 0)
(-0.00657288 0.137681 0)
(-0.00798883 0.134565 0)
(-0.011413 0.113308 0)
(-0.00849157 0.0833212 0)
(-0.00838946 0.0614272 0)
(-0.00805253 0.0502978 0)
(-0.00776323 0.0423142 0)
(-0.00780067 0.0330714 0)
(-0.00841852 0.021908 0)
(-0.00884871 0.00752928 0)
(-0.00902481 -0.00904127 0)
(-0.00960617 -0.0265536 0)
(-0.00690385 -0.0444538 0)
(-0.0113428 -0.0626624 0)
(-0.00328296 -0.0781422 0)
(-0.013566 -0.092011 0)
(0.00267438 -0.10897 0)
(-0.0179967 -0.152443 0)
(0.00643481 -0.226796 0)
(0.00350626 0.114137 0)
(0.00116102 0.141027 0)
(0.0024279 0.137137 0)
(-0.000109433 0.114789 0)
(0.00196286 0.0833874 0)
(0.0017838 0.0611471 0)
(0.00340358 0.0494772 0)
(0.00535303 0.04164 0)
(0.0069622 0.0330354 0)
(0.00804217 0.0222926 0)
(0.00820506 0.00834604 0)
(0.00841307 -0.00828136 0)
(0.00620827 -0.0262751 0)
(0.00795192 -0.0437041 0)
(0.00182661 -0.061657 0)
(0.00754412 -0.0756485 0)
(-0.00651467 -0.0915005 0)
(0.00898131 -0.105435 0)
(-0.0157577 -0.149073 0)
(0.00767627 -0.231922 0)
(0.00623891 0.11034 0)
(0.00729253 0.139356 0)
(0.0117672 0.13584 0)
(0.0105768 0.114276 0)
(0.0117209 0.0824235 0)
(0.0109406 0.0590258 0)
(0.0130226 0.0463722 0)
(0.0159653 0.0385008 0)
(0.018898 0.0306814 0)
(0.0215406 0.0210033 0)
(0.0224864 0.00827387 0)
(0.023559 -0.00701157 0)
(0.0205279 -0.0243439 0)
(0.0211965 -0.041387 0)
(0.0136618 -0.0581472 0)
(0.0157874 -0.0730065 0)
(-0.000249118 -0.0883559 0)
(0.0124948 -0.102786 0)
(-0.0156431 -0.146641 0)
(0.010535 -0.237465 0)
(0.00804854 0.101065 0)
(0.0141586 0.135474 0)
(0.0203705 0.133784 0)
(0.0206279 0.116709 0)
(0.0212263 0.0836904 0)
(0.0196844 0.0591851 0)
(0.0209548 0.0442859 0)
(0.0239575 0.0352203 0)
(0.0274757 0.027511 0)
(0.0313528 0.0187819 0)
(0.0327301 0.00747174 0)
(0.0351221 -0.00618858 0)
(0.0317636 -0.0214972 0)
(0.0320338 -0.0375123 0)
(0.0232488 -0.0529943 0)
(0.0228561 -0.0666425 0)
(0.00441204 -0.0822451 0)
(0.0170322 -0.0952857 0)
(-0.0149255 -0.140861 0)
(0.0124249 -0.239899 0)
(0.0107336 0.0887074 0)
(0.01964 0.126702 0)
(0.0285266 0.127536 0)
(0.0310201 0.115677 0)
(0.0318253 0.0848976 0)
(0.0292747 0.0582187 0)
(0.0289986 0.041081 0)
(0.0310006 0.0304815 0)
(0.0337748 0.0226273 0)
(0.0383561 0.0148894 0)
(0.0395273 0.00523012 0)
(0.0425945 -0.0063168 0)
(0.0393418 -0.0193465 0)
(0.0390582 -0.0334051 0)
(0.0298071 -0.0468029 0)
(0.027443 -0.0600068 0)
(0.00799964 -0.0751354 0)
(0.019304 -0.0896777 0)
(-0.0163443 -0.137886 0)
(0.0157449 -0.242557 0)
(0.0122999 0.0686262 0)
(0.0250407 0.117481 0)
(0.0371678 0.121486 0)
(0.0403785 0.114096 0)
(0.0431615 0.0905386 0)
(0.0405635 0.0614549 0)
(0.0382469 0.0413974 0)
(0.0385289 0.0284014 0)
(0.0391372 0.0192999 0)
(0.0434232 0.0117994 0)
(0.0440056 0.00370553 0)
(0.0471692 -0.00607052 0)
(0.0439346 -0.0165132 0)
(0.043509 -0.0284534 0)
(0.034026 -0.0398171 0)
(0.0307833 -0.0519506 0)
(0.0115706 -0.0665066 0)
(0.0220242 -0.0801312 0)
(-0.0155985 -0.132112 0)
(0.0190626 -0.242649 0)
(0.0146199 0.0487157 0)
(0.0281205 0.10149 0)
(0.0425748 0.111451 0)
(0.0497875 0.106464 0)
(0.0542773 0.0906851 0)
(0.0546354 0.0637878 0)
(0.0520296 0.0417168 0)
(0.0506702 0.0265421 0)
(0.0479796 0.0162155 0)
(0.05005 0.00827152 0)
(0.0488586 0.00142603 0)
(0.0511461 -0.00644889 0)
(0.0475982 -0.014565 0)
(0.046975 -0.0241508 0)
(0.037735 -0.0332476 0)
(0.0342526 -0.0447931 0)
(0.0157087 -0.0580877 0)
(0.0242793 -0.0737591 0)
(-0.0152099 -0.129459 0)
(0.0244212 -0.243051 0)
(0.0104821 0.0191062 0)
(0.0296257 0.0877222 0)
(0.0448222 0.102113 0)
(0.0551983 0.099439 0)
(0.0640842 0.0886104 0)
(0.0688463 0.0682312 0)
(0.068893 0.0472277 0)
(0.0689828 0.030482 0)
(0.0647379 0.0184721 0)
(0.0637767 0.00918664 0)
(0.0598097 0.00230261 0)
(0.0600337 -0.00493045 0)
(0.0550384 -0.0111695 0)
(0.0537928 -0.0193042 0)
(0.0445077 -0.0265219 0)
(0.0409341 -0.0372294 0)
(0.0239582 -0.0478527 0)
(0.0283293 -0.0629395 0)
(-0.0101028 -0.122949 0)
(0.0308703 -0.241702 0)
(-0.00121636 0.00844383 0)
(0.0218765 0.0637932 0)
(0.0412532 0.0835014 0)
(0.0561435 0.0835885 0)
(0.06951 0.0770867 0)
(0.0809691 0.0631133 0)
(0.0853832 0.0475045 0)
(0.0897492 0.0326577 0)
(0.0876417 0.0210627 0)
(0.0876653 0.0115612 0)
(0.0823149 0.00484895 0)
(0.0803996 -0.00208021 0)
(0.0731395 -0.00725575 0)
(0.0699034 -0.0141494 0)
(0.0594903 -0.0193758 0)
(0.0538752 -0.028753 0)
(0.0360019 -0.0357186 0)
(0.0335923 -0.0540672 0)
(-0.00350945 -0.122827 0)
(0.0404263 -0.24113 0)
(-0.016918 0.00241335 0)
(0.0075479 0.0524492 0)
(0.0290548 0.0697647 0)
(0.0491674 0.0695598 0)
(0.0673416 0.0652408 0)
(0.0853473 0.0549066 0)
(0.0955891 0.0433323 0)
(0.104995 0.0326166 0)
(0.10688 0.0244717 0)
(0.109583 0.0164884 0)
(0.105944 0.011417 0)
(0.104264 0.00556297 0)
(0.0969517 0.00203027 0)
(0.0923688 -0.00366991 0)
(0.0807798 -0.00696621 0)
(0.0727088 -0.0148513 0)
(0.0529105 -0.0192834 0)
(0.0434806 -0.040541 0)
(0.0135073 -0.118604 0)
(0.0533603 -0.230936 0)
(-0.0233273 0.0243175 0)
(-0.0184707 0.0205762 0)
(0.00829589 0.0362254 0)
(0.035321 0.0368665 0)
(0.0584141 0.0366973 0)
(0.0820105 0.0324473 0)
(0.0968396 0.0277567 0)
(0.110412 0.0207812 0)
(0.116711 0.0164019 0)
(0.121831 0.0118171 0)
(0.121856 0.00940093 0)
(0.120808 0.00624517 0)
(0.116281 0.00457586 0)
(0.112162 0.00207135 0)
(0.10282 2.59095e-05 0)
(0.0955272 -0.00369518 0)
(0.0776265 -0.0101985 0)
(0.0719442 -0.0360269 0)
(0.053984 -0.110336 0)
(0.0782364 -0.183313 0)
(0.0371336 0.0337079 0)
(0.0418436 0.0207967 0)
(0.0592558 0.0186976 0)
(0.0924798 0.0175088 0)
(0.114481 0.0190518 0)
(0.142652 0.0173136 0)
(0.162232 0.0168665 0)
(0.184411 0.0142553 0)
(0.198764 0.0136606 0)
(0.214257 0.0114944 0)
(0.223427 0.0114216 0)
(0.233832 0.00959286 0)
(0.23961 0.00989101 0)
(0.246559 0.00813779 0)
(0.250301 0.00868883 0)
(0.254059 0.00657496 0)
(0.251281 0.0050066 0)
(0.239505 -0.00181201 0)
(0.202663 -0.0142211 0)
(0.148535 -0.0331505 0)
)
;

boundaryField
{
    movingWall
    {
        type            fixedValue;
        value           uniform (1 0 0);
    }
    fixedWalls
    {
        type            noSlip;
    }
    frontAndBack
    {
        type            empty;
    }
}


// ************************************************************************* //
