/*--------------------------------*- C++ -*----------------------------------*\
| =========                 |                                                 |
| \\      /  F ield         | OpenFOAM: The Open Source CFD Toolbox           |
|  \\    /   O peration     | Version:  5.0                                   |
|   \\  /    A nd           | Web:      www.OpenFOAM.org                      |
|    \\/     M anipulation  |                                                 |
\*---------------------------------------------------------------------------*/
FoamFile
{
    version     2.0;
    format      ascii;
    class       volScalarField;
    location    "6";
    object      yPlus;
}
// * * * * * * * * * * * * * * * * * * * * * * * * * * * * * * * * * * * * * //

dimensions      [0 0 0 0 0 0 0];

internalField   uniform 0;

boundaryField
{
    movingWall
    {
        type            calculated;
        value           nonuniform List<scalar> 
20
(
15.5198
15.4789
15.3373
15.0639
14.8806
14.6417
14.4736
14.2803
14.1541
14.0163
13.9343
13.8404
13.7882
13.7248
13.6908
13.6562
13.6815
13.7886
14.1197
14.5955
)
;
    }
    fixedWalls
    {
        type            calculated;
        value           nonuniform List<scalar> 
60
(
1.05156
1.28461
1.52798
2.84427
3.71026
4.38852
4.88759
5.17402
5.34196
5.34301
5.25634
5.03451
4.72637
4.17492
3.56589
2.33413
1.46039
2.06696
2.90247
3.54087
1.80244
3.81984
5.28463
5.94634
6.54566
6.87472
7.19158
7.35837
7.53139
7.61658
7.70874
7.74952
7.79531
7.80059
7.81465
7.80489
7.81817
7.69774
7.05886
6.16825
1.05156
1.40159
0.687919
1.95412
3.74464
4.71226
5.3386
5.80391
6.10164
6.33117
6.45474
6.52455
6.54081
6.47216
6.3174
6.03462
5.57737
4.87649
3.85573
1.80244
)
;
    }
    frontAndBack
    {
        type            empty;
    }
}


// ************************************************************************* //
