/*--------------------------------*- C++ -*----------------------------------*\
| =========                 |                                                 |
| \\      /  F ield         | OpenFOAM: The Open Source CFD Toolbox           |
|  \\    /   O peration     | Version:  5.0                                   |
|   \\  /    A nd           | Web:      www.OpenFOAM.org                      |
|    \\/     M anipulation  |                                                 |
\*---------------------------------------------------------------------------*/
FoamFile
{
    version     2.0;
    format      ascii;
    class       volScalarField;
    location    "5.5";
    object      k;
}
// * * * * * * * * * * * * * * * * * * * * * * * * * * * * * * * * * * * * * //

dimensions      [0 2 -2 0 0 0 0];

internalField   nonuniform List<scalar> 
400
(
4.8397e-10
2.26999e-09
8.21719e-09
4.84089e-08
1.68831e-07
3.53085e-07
5.68054e-07
8.14304e-07
1.08345e-06
1.38021e-06
1.719e-06
2.11917e-06
2.64761e-06
3.02819e-06
3.18498e-06
3.19227e-06
2.60197e-06
1.59437e-06
6.3782e-07
2.90663e-07
5.72938e-09
6.16009e-08
1.53822e-07
4.49405e-07
1.22061e-06
2.95342e-06
5.99702e-06
1.03453e-05
1.55825e-05
2.10279e-05
2.63636e-05
3.02487e-05
3.22076e-05
3.28392e-05
3.17931e-05
2.73907e-05
2.09779e-05
1.16722e-05
3.76481e-06
1.25309e-06
4.45179e-08
3.26226e-07
8.06725e-07
2.24578e-06
6.27279e-06
1.54305e-05
3.10828e-05
5.43597e-05
7.42837e-05
9.184e-05
0.000104954
0.000113384
0.000116832
0.000117483
0.000109057
9.57035e-05
7.09342e-05
4.27535e-05
1.1837e-05
2.69573e-06
1.50729e-07
9.83403e-07
2.5424e-06
7.51923e-06
2.14086e-05
5.2219e-05
8.79317e-05
0.000108706
0.000121163
0.000131731
0.000140261
0.000150832
0.000159251
0.000166651
0.000172023
0.000174424
0.000160505
0.000107245
2.96883e-05
4.18257e-06
3.7226e-07
2.51806e-06
6.58804e-06
1.97669e-05
5.32292e-05
9.27517e-05
0.000110246
0.000117591
0.000120623
0.000124234
0.000126306
0.0001345
0.000149564
0.000164301
0.000178748
0.000197181
0.000207488
0.000182392
5.81576e-05
5.61083e-06
5.44452e-07
4.02513e-06
1.23495e-05
3.89799e-05
8.88288e-05
0.000112966
0.000119922
0.000119038
0.000108066
0.000101234
9.79907e-05
9.76514e-05
0.000106625
0.000124068
0.000153855
0.000195199
0.00022726
0.000231523
9.65588e-05
6.89942e-06
9.38281e-07
7.50394e-06
2.30858e-05
6.2143e-05
0.000110277
0.000126556
0.000128807
0.000113516
8.92922e-05
7.85905e-05
7.01891e-05
6.64398e-05
6.64778e-05
8.06462e-05
0.000111608
0.000162445
0.000232296
0.000260197
0.000129861
7.93204e-06
1.08946e-06
9.64702e-06
2.96679e-05
7.88117e-05
0.000127517
0.000140123
0.000139062
0.0001137
8.04901e-05
6.54624e-05
5.60108e-05
5.20047e-05
5.22884e-05
6.40123e-05
9.29756e-05
0.000148358
0.000219675
0.000284671
0.000162518
8.86986e-06
1.0573e-06
1.20728e-05
3.64324e-05
9.2107e-05
0.000139732
0.000152798
0.000150055
0.000120328
8.38006e-05
6.34378e-05
5.15143e-05
4.73999e-05
4.85634e-05
5.90141e-05
8.53435e-05
0.000143908
0.000207538
0.000296382
0.000186151
9.57343e-06
9.07652e-07
1.21431e-05
3.78247e-05
9.77981e-05
0.000155036
0.000168172
0.000163987
0.00013638
9.76448e-05
7.07376e-05
5.58132e-05
4.81845e-05
4.96298e-05
5.9271e-05
8.41125e-05
0.000145203
0.000201429
0.00030342
0.000206016
1.02697e-05
7.45907e-07
1.15488e-05
3.66714e-05
9.60461e-05
0.000158568
0.00017988
0.000177147
0.000157465
0.000124116
9.21042e-05
7.12875e-05
6.00674e-05
6.12013e-05
7.07097e-05
9.50948e-05
0.000158154
0.000199003
0.000305425
0.000215683
1.0838e-05
6.20703e-07
1.00924e-05
3.35439e-05
9.00574e-05
0.000156113
0.000182638
0.000185004
0.000175656
0.000151667
0.000123509
0.000100475
8.44375e-05
8.24114e-05
9.08391e-05
0.000112724
0.000167433
0.000197348
0.000305298
0.000219707
1.15508e-05
4.8705e-07
7.47722e-06
2.73681e-05
7.74401e-05
0.000147543
0.00018027
0.00018589
0.000183284
0.000172074
0.000151096
0.000131491
0.000115787
0.000109486
0.000115393
0.000131391
0.000173019
0.00019546
0.000299625
0.000218603
1.23271e-05
3.41515e-07
4.8754e-06
1.97825e-05
5.67237e-05
0.000129436
0.000171313
0.000182915
0.000182586
0.000178598
0.000167948
0.000154155
0.000143855
0.000136239
0.000139656
0.000149286
0.000175188
0.000191019
0.000286562
0.000199664
1.33861e-05
1.93188e-07
2.6907e-06
1.2448e-05
3.69903e-05
9.45975e-05
0.000148676
0.000170894
0.000175969
0.000175132
0.000171317
0.000164324
0.000158692
0.000152701
0.000153898
0.000157851
0.000175113
0.000187949
0.000272273
0.000182131
1.40929e-05
8.33407e-08
1.3755e-06
6.89638e-06
2.14826e-05
5.82032e-05
0.000108193
0.000140886
0.000155462
0.000160871
0.000161811
0.000160679
0.000160291
0.000158246
0.000158574
0.000160155
0.000170138
0.000180908
0.000244584
0.000153192
1.43633e-05
3.14926e-08
7.02396e-07
3.60082e-06
1.11636e-05
2.82448e-05
6.35169e-05
9.33677e-05
0.000111551
0.000122533
0.000130388
0.000135214
0.000139365
0.000142585
0.000144184
0.00014566
0.000151853
0.000169516
0.000211228
0.000123704
1.41901e-05
3.65784e-08
4.27739e-07
1.88833e-06
5.47878e-06
1.29513e-05
2.84449e-05
4.94271e-05
6.34305e-05
7.30275e-05
7.90275e-05
8.27183e-05
8.61472e-05
8.90051e-05
9.53148e-05
0.000104652
0.000124588
0.00016576
0.00018735
9.43589e-05
1.24558e-05
1.00242e-07
5.72106e-07
1.66523e-06
4.06098e-06
7.18581e-06
1.4154e-05
2.0854e-05
3.1771e-05
3.79713e-05
4.89164e-05
5.71768e-05
7.24452e-05
8.52578e-05
0.000111487
0.000137312
0.000185516
0.000234208
0.000188336
5.83381e-05
9.03486e-06
4.00478e-08
9.47092e-08
2.53418e-07
5.73878e-07
8.42323e-07
1.46357e-06
2.07551e-06
2.95107e-06
3.63217e-06
4.26684e-06
4.75214e-06
5.55347e-06
7.33917e-06
8.25248e-06
1.02278e-05
1.01956e-05
1.01204e-05
9.78637e-06
8.58029e-06
5.3974e-06
)
;

boundaryField
{
    movingWall
    {
        type            kqRWallFunction;
        value           nonuniform List<scalar> 
20
(
4.00478e-08
9.47092e-08
2.53418e-07
5.73878e-07
8.42323e-07
1.46357e-06
2.07551e-06
2.95107e-06
3.63217e-06
4.26684e-06
4.75214e-06
5.55347e-06
7.33917e-06
8.25248e-06
1.02278e-05
1.01956e-05
1.01204e-05
9.78637e-06
8.58029e-06
5.3974e-06
)
;
    }
    fixedWalls
    {
        type            kqRWallFunction;
        value           nonuniform List<scalar> 
60
(
4.8397e-10
5.72938e-09
4.45179e-08
1.50729e-07
3.7226e-07
5.44452e-07
9.38281e-07
1.08946e-06
1.0573e-06
9.07652e-07
7.45907e-07
6.20703e-07
4.8705e-07
3.41515e-07
1.93188e-07
8.33407e-08
3.14926e-08
3.65784e-08
1.00242e-07
4.00478e-08
2.90663e-07
1.25309e-06
2.69573e-06
4.18257e-06
5.61083e-06
6.89942e-06
7.93204e-06
8.86986e-06
9.57343e-06
1.02697e-05
1.0838e-05
1.15508e-05
1.23271e-05
1.33861e-05
1.40929e-05
1.43633e-05
1.41901e-05
1.24558e-05
9.03486e-06
5.3974e-06
4.8397e-10
2.26999e-09
8.21719e-09
4.84089e-08
1.68831e-07
3.53085e-07
5.68054e-07
8.14304e-07
1.08345e-06
1.38021e-06
1.719e-06
2.11917e-06
2.64761e-06
3.02819e-06
3.18498e-06
3.19227e-06
2.60197e-06
1.59437e-06
6.3782e-07
2.90663e-07
)
;
    }
    frontAndBack
    {
        type            empty;
    }
}


// ************************************************************************* //
