/*--------------------------------*- C++ -*----------------------------------*\
| =========                 |                                                 |
| \\      /  F ield         | OpenFOAM: The Open Source CFD Toolbox           |
|  \\    /   O peration     | Version:  5.0                                   |
|   \\  /    A nd           | Web:      www.OpenFOAM.org                      |
|    \\/     M anipulation  |                                                 |
\*---------------------------------------------------------------------------*/
FoamFile
{
    version     2.0;
    format      ascii;
    class       volScalarField;
    location    "5.5";
    object      nut;
}
// * * * * * * * * * * * * * * * * * * * * * * * * * * * * * * * * * * * * * //

dimensions      [0 2 -1 0 0 0 0];

internalField   nonuniform List<scalar> 
400
(
3.78102e-12
1.77343e-11
6.41968e-11
3.78195e-10
1.31899e-09
2.75848e-09
4.43792e-09
6.36175e-09
8.46447e-09
1.07829e-08
1.34297e-08
1.6556e-08
2.06845e-08
2.36577e-08
2.48826e-08
2.49396e-08
2.03279e-08
1.2456e-08
4.98297e-09
2.2708e-09
4.47608e-11
1.46171e-09
2.26294e-09
5.57266e-09
1.49193e-08
4.17458e-08
9.96771e-08
2.05646e-07
3.69281e-07
5.64611e-07
7.76731e-07
9.20403e-07
9.82171e-07
9.20066e-07
8.36535e-07
6.32264e-07
4.12896e-07
1.81907e-07
4.19579e-08
9.78977e-09
3.47796e-10
7.28903e-09
1.46876e-08
3.98775e-08
1.3254e-07
4.35864e-07
1.06235e-06
2.24739e-06
3.40866e-06
4.5053e-06
5.30454e-06
5.77922e-06
5.79029e-06
5.44105e-06
4.53827e-06
3.35338e-06
1.93254e-06
8.30409e-07
1.44203e-07
2.10604e-08
1.17757e-09
2.24858e-08
5.63808e-08
1.86928e-07
7.32589e-07
2.36778e-06
4.74048e-06
7.03055e-06
8.68024e-06
1.04748e-05
1.17426e-05
1.29078e-05
1.36326e-05
1.31896e-05
1.19551e-05
9.84518e-06
6.53716e-06
2.78711e-06
4.167e-07
3.26763e-08
2.90828e-09
6.17905e-08
1.77324e-07
6.69518e-07
2.63622e-06
5.85427e-06
8.4175e-06
1.08314e-05
1.24118e-05
1.46088e-05
1.59066e-05
1.74927e-05
1.95211e-05
1.97214e-05
1.82468e-05
1.57642e-05
1.11826e-05
5.81315e-06
9.0798e-07
4.38346e-08
4.25353e-09
1.08466e-07
4.00332e-07
1.71229e-06
5.7241e-06
9.13774e-06
1.19041e-05
1.39664e-05
1.42726e-05
1.55308e-05
1.64477e-05
1.70915e-05
1.87901e-05
2.03562e-05
2.16169e-05
2.16293e-05
1.64925e-05
9.25227e-06
1.69676e-06
5.39018e-08
7.33032e-09
2.23029e-07
8.69601e-07
3.32865e-06
8.54837e-06
1.22353e-05
1.526e-05
1.54824e-05
1.3678e-05
1.39896e-05
1.39438e-05
1.38128e-05
1.39053e-05
1.57891e-05
1.89153e-05
2.18606e-05
2.01596e-05
1.18159e-05
2.45339e-06
6.19691e-08
8.51137e-09
3.03343e-07
1.27055e-06
4.84893e-06
1.11823e-05
1.5284e-05
1.84559e-05
1.69985e-05
1.33501e-05
1.24708e-05
1.20589e-05
1.17122e-05
1.18106e-05
1.36183e-05
1.74456e-05
2.24122e-05
2.2534e-05
1.48929e-05
3.32455e-06
6.92958e-08
8.26012e-09
4.08142e-07
1.70434e-06
6.16234e-06
1.31271e-05
1.78682e-05
2.12654e-05
1.90504e-05
1.44399e-05
1.21472e-05
1.11825e-05
1.08919e-05
1.11811e-05
1.28535e-05
1.66826e-05
2.28547e-05
2.32206e-05
1.66673e-05
3.97102e-06
7.47924e-08
7.09103e-09
4.06919e-07
1.89765e-06
6.87854e-06
1.49585e-05
2.03756e-05
2.40859e-05
2.23237e-05
1.71581e-05
1.33733e-05
1.16251e-05
1.08549e-05
1.12952e-05
1.28514e-05
1.65836e-05
2.34321e-05
2.3915e-05
1.8288e-05
4.59378e-06
8.02323e-08
5.8274e-09
3.60794e-07
1.89163e-06
6.81827e-06
1.51695e-05
2.16603e-05
2.5884e-05
2.60477e-05
2.21216e-05
1.72541e-05
1.41553e-05
1.27043e-05
1.31278e-05
1.46498e-05
1.82682e-05
2.55537e-05
2.42324e-05
1.90029e-05
4.93667e-06
8.4672e-08
4.84924e-09
2.74571e-07
1.69978e-06
6.32509e-06
1.45543e-05
2.14668e-05
2.64399e-05
2.87169e-05
2.69128e-05
2.3084e-05
1.95042e-05
1.70848e-05
1.68385e-05
1.80904e-05
2.10684e-05
2.67822e-05
2.42831e-05
1.93038e-05
5.20154e-06
9.02407e-08
3.80508e-09
1.64529e-07
1.29982e-06
5.2735e-06
1.30743e-05
2.01337e-05
2.53445e-05
2.89598e-05
2.99251e-05
2.7909e-05
2.52131e-05
2.28981e-05
2.17574e-05
2.24502e-05
2.41542e-05
2.74616e-05
2.40715e-05
1.90153e-05
5.27017e-06
9.63054e-08
2.66808e-09
8.96251e-08
8.22791e-07
3.62211e-06
1.07535e-05
1.7719e-05
2.30822e-05
2.69986e-05
2.95026e-05
2.98399e-05
2.86141e-05
2.75515e-05
2.60855e-05
2.6175e-05
2.64001e-05
2.68463e-05
2.28208e-05
1.79452e-05
4.83976e-06
1.04579e-07
1.50928e-09
4.15625e-08
4.27026e-07
2.0982e-06
7.18459e-06
1.39328e-05
1.92088e-05
2.30419e-05
2.59244e-05
2.77468e-05
2.81169e-05
2.81095e-05
2.69983e-05
2.65925e-05
2.5729e-05
2.48819e-05
2.09577e-05
1.63139e-05
4.3305e-06
1.10101e-07
6.51099e-10
1.99413e-08
1.90186e-07
1.01267e-06
3.87121e-06
9.04115e-06
1.41226e-05
1.80598e-05
2.09397e-05
2.28675e-05
2.39649e-05
2.47727e-05
2.44285e-05
2.39613e-05
2.2902e-05
2.13855e-05
1.80142e-05
1.37161e-05
3.51946e-06
1.12213e-07
2.46036e-10
1.07657e-08
9.01369e-08
4.163e-07
1.47608e-06
4.27162e-06
7.62909e-06
1.06325e-05
1.31683e-05
1.52736e-05
1.67137e-05
1.78445e-05
1.82232e-05
1.80257e-05
1.72257e-05
1.57639e-05
1.3933e-05
1.02226e-05
2.58038e-06
1.1086e-07
2.85769e-10
8.17976e-09
4.88751e-08
1.85533e-07
5.54714e-07
1.51563e-06
3.14658e-06
4.66092e-06
6.04463e-06
7.1493e-06
7.94025e-06
8.58444e-06
8.83269e-06
9.17967e-06
9.33283e-06
9.31635e-06
9.70155e-06
6.81144e-06
1.62087e-06
9.73108e-08
7.83144e-10
1.40004e-08
4.35081e-08
1.21006e-07
2.43473e-07
5.3192e-07
8.74054e-07
1.41657e-06
1.7819e-06
2.28759e-06
2.62525e-06
3.16569e-06
3.46737e-06
4.0587e-06
4.4255e-06
5.1715e-06
5.56114e-06
3.33878e-06
6.55148e-07
7.05849e-08
3.12873e-10
7.39916e-10
1.97983e-09
4.48342e-09
6.58065e-09
1.14341e-08
1.62149e-08
2.30552e-08
2.83763e-08
3.33347e-08
3.71261e-08
4.33865e-08
5.73372e-08
6.44725e-08
7.99043e-08
7.96533e-08
7.90654e-08
7.6456e-08
6.70335e-08
4.21672e-08
)
;

boundaryField
{
    movingWall
    {
        type            nutkWallFunction;
        Cmu             0.09;
        kappa           0.41;
        E               9.8;
        value           uniform 0;
    }
    fixedWalls
    {
        type            nutkWallFunction;
        Cmu             0.09;
        kappa           0.41;
        E               9.8;
        value           uniform 0;
    }
    frontAndBack
    {
        type            empty;
    }
}


// ************************************************************************* //
