/*--------------------------------*- C++ -*----------------------------------*\
| =========                 |                                                 |
| \\      /  F ield         | OpenFOAM: The Open Source CFD Toolbox           |
|  \\    /   O peration     | Version:  5.0                                   |
|   \\  /    A nd           | Web:      www.OpenFOAM.org                      |
|    \\/     M anipulation  |                                                 |
\*---------------------------------------------------------------------------*/
FoamFile
{
    version     2.0;
    format      ascii;
    class       volScalarField;
    location    "5.5";
    object      omega;
}
// * * * * * * * * * * * * * * * * * * * * * * * * * * * * * * * * * * * * * //

dimensions      [0 0 -1 0 0 0 0];

internalField   nonuniform List<scalar> 
400
(
128
128
128
128
128
128
128
128
128
128
128
128
128
128
128
128
128
128
128
128
128
42.143
67.9744
80.6446
81.814
70.7478
60.1645
50.3067
42.1968
37.2432
33.9418
32.8647
32.7922
35.6922
38.0056
43.3216
50.8068
64.1655
89.7284
128
128
44.7558
54.9255
56.3169
47.3276
35.4022
29.2584
24.1879
21.7926
20.3849
19.7857
19.6192
20.1771
21.592
24.0306
28.5394
36.7051
51.4849
82.0858
128
128
43.7344
45.0933
40.2253
29.2232
22.054
18.5491
15.462
13.9585
12.5759
11.9446
11.6854
11.6816
12.635
14.3891
17.7167
24.5527
38.479
71.2461
128
128
40.7516
37.1526
29.5241
20.1915
15.8434
13.0973
10.8565
9.71839
8.50406
7.94049
7.68894
7.66163
8.3311
9.79614
12.5081
18.5546
31.3757
64.0516
128
128
37.1097
30.8482
22.7648
15.5184
12.3626
10.0741
8.52316
7.57159
6.51824
5.95771
5.71345
5.67452
6.09484
7.11735
9.02474
13.7796
25.0233
56.9078
128
128
33.6456
26.5476
18.6691
12.9003
10.3435
8.44082
7.33194
6.52814
5.61778
5.03373
4.81003
4.78074
5.10772
5.90042
7.43094
11.5228
22.0209
52.9312
128
128
31.8024
23.3504
16.2534
11.4034
9.16792
7.5348
6.68881
6.02918
5.24924
4.64479
4.44022
4.42722
4.70045
5.32945
6.61954
9.7486
19.1145
48.8841
128
128
29.58
21.3762
14.9467
10.6445
8.55138
7.05628
6.3163
5.80341
5.22241
4.60671
4.35185
4.34334
4.59128
5.11571
6.29668
8.93765
17.7823
46.8773
128
128
29.8414
19.9324
14.2179
10.3644
8.2536
6.80843
6.10923
5.69088
5.28947
4.8011
4.43898
4.39388
4.61202
5.07202
6.19677
8.42272
16.5912
44.8467
128
128
32.0094
19.3861
14.0866
10.4531
8.3046
6.84386
6.04526
5.61059
5.33809
5.0361
4.72812
4.66195
4.82667
5.20548
6.1891
8.21227
16.0725
43.69
128
128
36.757
19.7343
14.2381
10.7263
8.50793
6.99717
6.11684
5.63547
5.35042
5.15143
4.94225
4.89423
5.0214
5.35038
6.25168
8.12698
15.8154
42.2389
128
128
45.4463
21.0553
14.6848
11.285
8.95366
7.33452
6.32891
5.75014
5.41388
5.21518
5.05663
5.03212
5.13994
5.43969
6.30039
8.11997
15.7571
41.4793
128
128
54.3976
24.0432
15.6604
12.0366
9.66829
7.92449
6.76281
6.05363
5.62829
5.38737
5.22133
5.22279
5.33549
5.65474
6.52561
8.37038
15.9687
41.2549
128
128
64.7387
29.1503
17.6295
13.1667
10.6709
8.89666
7.63692
6.75551
6.17429
5.84433
5.64551
5.65597
5.78727
6.13514
7.03774
8.96801
16.6897
42.0578
128
128
68.9774
36.2613
21.2138
15.0349
11.9668
9.97596
8.60818
7.68259
7.07605
6.70475
6.47048
6.47795
6.61794
6.99303
7.95574
10.0425
17.8318
43.5271
128
128
65.2437
39.9483
26.8162
19.135
14.8695
12.2384
10.4915
9.30514
8.5368
8.08997
7.81001
7.82434
7.99883
8.45599
9.63299
12.1665
20.6627
47.9403
128
128
52.2923
38.6358
29.53
23.3477
18.7677
15.7082
13.609
12.0814
11.0539
10.4176
10.0353
10.0768
10.3832
11.2133
13.3731
17.0859
27.5052
58.2149
128
128
40.8635
38.274
33.5603
29.5139
26.6093
23.859
22.4281
21.3094
21.3834
21.7795
22.8845
24.5886
27.4686
31.0274
35.8728
42.1152
56.4086
89.0457
128
128
128
128
128
128
128
128
128
128
128
128
128
128
128
128
128
128
128
128
128
)
;

boundaryField
{
    movingWall
    {
        Cmu             0.09;
        kappa           0.41;
        E               9.8;
        beta1           0.075;
        blended         false;
        type            omegaWallFunction;
        value           nonuniform List<scalar> 
20
(
128
128
128
128
128
128
128
128
128
128
128
128
128
128
128
128
128
128
128
128
)
;
    }
    fixedWalls
    {
        Cmu             0.09;
        kappa           0.41;
        E               9.8;
        beta1           0.075;
        blended         false;
        type            omegaWallFunction;
        value           nonuniform List<scalar> 
60
(
128
128
128
128
128
128
128
128
128
128
128
128
128
128
128
128
128
128
128
128
128
128
128
128
128
128
128
128
128
128
128
128
128
128
128
128
128
128
128
128
128
128
128
128
128
128
128
128
128
128
128
128
128
128
128
128
128
128
128
128
)
;
    }
    frontAndBack
    {
        type            empty;
    }
}


// ************************************************************************* //
