/*--------------------------------*- C++ -*----------------------------------*\
| =========                 |                                                 |
| \\      /  F ield         | OpenFOAM: The Open Source CFD Toolbox           |
|  \\    /   O peration     | Version:  5.0                                   |
|   \\  /    A nd           | Web:      www.OpenFOAM.org                      |
|    \\/     M anipulation  |                                                 |
\*---------------------------------------------------------------------------*/
FoamFile
{
    version     2.0;
    format      ascii;
    class       volScalarField;
    location    "5.5";
    object      p;
}
// * * * * * * * * * * * * * * * * * * * * * * * * * * * * * * * * * * * * * //

dimensions      [0 2 -2 0 0 0 0];

internalField   nonuniform List<scalar> 
400
(
7.6963e-08
-6.30247e-05
-0.000129453
-0.000166748
-0.000288806
-0.00129905
-0.00302102
-0.00476271
-0.00622841
-0.00724513
-0.00776503
-0.00774733
-0.00715833
-0.00590998
-0.00390485
-0.00111541
0.00239869
0.00618918
0.00905532
0.0102439
2.32522e-05
-2.97361e-05
-9.44308e-05
-0.000395758
-0.00119471
-0.00253279
-0.00414442
-0.00570948
-0.00705654
-0.00798887
-0.00846524
-0.00843381
-0.00791359
-0.00682761
-0.00511181
-0.00271366
0.000366129
0.00394143
0.0071479
0.00898406
0.000175091
-6.00032e-06
-0.000460299
-0.00133866
-0.0026889
-0.00429138
-0.00589048
-0.00738752
-0.00855636
-0.0093269
-0.00967183
-0.00955703
-0.00899144
-0.00800666
-0.00659869
-0.00472215
-0.00231844
0.000631751
0.00375391
0.00589607
0.000202345
-0.000228629
-0.00120331
-0.00270919
-0.00447251
-0.0062081
-0.00771142
-0.00888587
-0.00974525
-0.010297
-0.0105052
-0.0103507
-0.00983963
-0.00899318
-0.00784253
-0.00640171
-0.0046194
-0.00238828
0.000181113
0.00222549
-0.000257172
-0.000933857
-0.00235493
-0.00425926
-0.0061622
-0.00779113
-0.00905737
-0.00999642
-0.0106846
-0.0111339
-0.0113011
-0.0111522
-0.0106874
-0.00994261
-0.00896548
-0.0078086
-0.00648272
-0.00485814
-0.00303555
-0.00119434
-0.00126454
-0.00208198
-0.003739
-0.00571697
-0.00755047
-0.00898233
-0.010032
-0.0108219
-0.0114184
-0.0118251
-0.0119922
-0.0118757
-0.01147
-0.0108158
-0.00997035
-0.00899949
-0.00798271
-0.0067895
-0.00554792
-0.00402768
-0.00260626
-0.00344624
-0.00510332
-0.00695925
-0.00862281
-0.00985249
-0.0107484
-0.0114394
-0.0119745
-0.0123569
-0.0125375
-0.0124604
-0.0121131
-0.011535
-0.0107982
-0.00995669
-0.00914646
-0.00822439
-0.00742221
-0.00618878
-0.00393374
-0.00471588
-0.00624173
-0.00791768
-0.00940257
-0.0104586
-0.0112486
-0.0118676
-0.0123509
-0.0127075
-0.012897
-0.012856
-0.0125641
-0.0120507
-0.0114032
-0.0106516
-0.0099932
-0.00920533
-0.00871391
-0.00771289
-0.00496331
-0.00567081
-0.00704306
-0.00856729
-0.00990842
-0.0108306
-0.0115461
-0.0121071
-0.0125394
-0.0128583
-0.0130372
-0.0130153
-0.0127669
-0.0123055
-0.0117366
-0.0110344
-0.0105286
-0.00975621
-0.00953862
-0.00867121
-0.00559551
-0.00622892
-0.00747475
-0.00889423
-0.010136
-0.0109777
-0.0116485
-0.012163
-0.0125483
-0.0128228
-0.0129727
-0.0129478
-0.0127258
-0.012296
-0.011802
-0.0111127
-0.0107768
-0.00991502
-0.0099737
-0.00914431
-0.0057957
-0.00638837
-0.00754135
-0.00890823
-0.010078
-0.0109217
-0.0115681
-0.0120533
-0.0124046
-0.0126358
-0.0127417
-0.0126968
-0.0124802
-0.0120908
-0.011615
-0.0109624
-0.0107146
-0.00973322
-0.0100993
-0.00916915
-0.00557404
-0.00617943
-0.00727793
-0.00860207
-0.00978043
-0.0106553
-0.0113101
-0.0117934
-0.012131
-0.0123336
-0.0124027
-0.0123303
-0.0121052
-0.0117274
-0.0112499
-0.0106355
-0.0103535
-0.00929759
-0.00992521
-0.00876994
-0.00506836
-0.00569431
-0.0067597
-0.00801282
-0.00924366
-0.0101776
-0.0108785
-0.0113937
-0.0117459
-0.0119444
-0.0119946
-0.0118949
-0.0116467
-0.0112517
-0.0107522
-0.0101333
-0.00974262
-0.00866542
-0.00942382
-0.00794462
-0.00448976
-0.0050944
-0.0060683
-0.00719936
-0.0084362
-0.00945797
-0.0102526
-0.0108426
-0.0112451
-0.0114683
-0.0115199
-0.0114016
-0.0111236
-0.0106891
-0.0101401
-0.00946942
-0.00892979
-0.00785649
-0.00859769
-0.0067227
-0.004078
-0.00453222
-0.00528674
-0.0062222
-0.00736553
-0.00848284
-0.00941501
-0.010128
-0.0106213
-0.0109001
-0.0109751
-0.0108496
-0.0105397
-0.0100492
-0.00942326
-0.00865903
-0.00794525
-0.00688653
-0.00748848
-0.00514129
-0.00399857
-0.00411165
-0.00444182
-0.00507495
-0.00606741
-0.00724769
-0.00834001
-0.00922057
-0.00985275
-0.0102277
-0.0103551
-0.0102398
-0.00990463
-0.00935174
-0.00863113
-0.0077447
-0.00685174
-0.00579307
-0.00610684
-0.00320374
-0.00402114
-0.0037992
-0.00354492
-0.00379919
-0.00462098
-0.00581839
-0.00705815
-0.00812843
-0.00894207
-0.00945799
-0.0096807
-0.00960988
-0.00926687
-0.00865884
-0.00783664
-0.00680636
-0.00572446
-0.00458072
-0.00441577
-0.000710956
-0.00379523
-0.00325488
-0.00251847
-0.00244045
-0.00312948
-0.00433672
-0.00570398
-0.0069375
-0.00792496
-0.00859546
-0.00893577
-0.00893748
-0.00862608
-0.00800779
-0.00711353
-0.00596174
-0.00464522
-0.00319819
-0.00192012
0.00386387
-0.00331155
-0.0025425
-0.00156415
-0.0013424
-0.00197251
-0.00317516
-0.00462741
-0.00600306
-0.0071415
-0.0079493
-0.00839847
-0.00848382
-0.00821638
-0.00759294
-0.00664738
-0.00537553
-0.00375014
-0.00122036
0.0038046
0.0161098
-0.00483283
-0.00181682
-0.000632855
-0.000593919
-0.0012224
-0.00243114
-0.00391889
-0.00542209
-0.00667343
-0.00758987
-0.00811337
-0.00826275
-0.00803199
-0.00743575
-0.00641245
-0.00489266
-0.00215877
0.00402032
0.0174741
0.0396218
)
;

boundaryField
{
    movingWall
    {
        type            zeroGradient;
    }
    fixedWalls
    {
        type            zeroGradient;
    }
    frontAndBack
    {
        type            empty;
    }
}


// ************************************************************************* //
