/*--------------------------------*- C++ -*----------------------------------*\
| =========                 |                                                 |
| \\      /  F ield         | OpenFOAM: The Open Source CFD Toolbox           |
|  \\    /   O peration     | Version:  5.0                                   |
|   \\  /    A nd           | Web:      www.OpenFOAM.org                      |
|    \\/     M anipulation  |                                                 |
\*---------------------------------------------------------------------------*/
FoamFile
{
    version     2.0;
    format      ascii;
    class       surfaceScalarField;
    location    "5.5";
    object      phi;
}
// * * * * * * * * * * * * * * * * * * * * * * * * * * * * * * * * * * * * * //

dimensions      [0 3 -1 0 0 0 0];

internalField   nonuniform List<scalar> 
760
(
2.0616e-07
-2.06167e-07
1.8748e-07
1.86795e-08
-1.89584e-07
3.77063e-07
-1.24098e-06
1.05139e-06
-2.89902e-06
1.65804e-06
-4.48413e-06
1.58511e-06
-5.76244e-06
1.27831e-06
-6.77441e-06
1.01197e-06
-7.47994e-06
7.05531e-07
-7.99816e-06
5.18215e-07
-8.27026e-06
2.72107e-07
-8.38414e-06
1.13873e-07
-8.29667e-06
-8.74706e-08
-8.03099e-06
-2.65672e-07
-7.54783e-06
-4.83164e-07
-6.75982e-06
-7.88015e-07
-5.55539e-06
-1.20442e-06
-3.79575e-06
-1.75964e-06
-1.59037e-06
-2.20538e-06
-1.59037e-06
-1.06951e-07
-9.92167e-08
-7.45162e-07
6.56891e-07
-2.12282e-06
1.75472e-06
-3.86607e-06
2.79465e-06
-5.1664e-06
2.95837e-06
-6.12572e-06
2.54444e-06
-6.95508e-06
2.10766e-06
-7.55414e-06
1.61103e-06
-8.04188e-06
1.19327e-06
-8.29661e-06
7.7295e-07
-8.42488e-06
4.00376e-07
-8.32496e-06
1.3956e-08
-8.13894e-06
-2.73489e-07
-7.81512e-06
-5.89493e-07
-7.33373e-06
-9.64556e-07
-6.65477e-06
-1.46697e-06
-5.67481e-06
-2.18439e-06
-4.23418e-06
-3.20027e-06
-2.21276e-06
-4.22679e-06
-3.80313e-06
-6.62125e-07
5.62909e-07
-1.9253e-06
1.92007e-06
-3.47603e-06
3.30545e-06
-4.62996e-06
3.94857e-06
-5.4249e-06
3.75331e-06
-6.03856e-06
3.1581e-06
-6.4338e-06
2.50291e-06
-6.63704e-06
1.81427e-06
-6.68085e-06
1.23708e-06
-6.61934e-06
7.11439e-07
-6.52728e-06
3.08309e-07
-6.4167e-06
-9.66253e-08
-6.20022e-06
-4.89965e-07
-5.88462e-06
-9.05097e-07
-5.49549e-06
-1.35369e-06
-5.01017e-06
-1.95229e-06
-4.42055e-06
-2.77401e-06
-3.54709e-06
-4.07373e-06
-2.11662e-06
-5.65726e-06
-5.91975e-06
-1.05212e-06
1.61503e-06
-2.48491e-06
3.35286e-06
-3.67429e-06
4.49483e-06
-4.42666e-06
4.70094e-06
-4.85816e-06
4.18481e-06
-5.04262e-06
3.34256e-06
-5.0478e-06
2.50809e-06
-5.0206e-06
1.78707e-06
-5.02174e-06
1.23822e-06
-5.02733e-06
7.17029e-07
-4.98577e-06
2.66749e-07
-4.85684e-06
-2.2556e-07
-4.65685e-06
-6.89948e-07
-4.3684e-06
-1.19355e-06
-3.99424e-06
-1.72785e-06
-3.58104e-06
-2.36549e-06
-3.13592e-06
-3.21914e-06
-2.57706e-06
-4.63259e-06
-1.63598e-06
-6.59834e-06
-7.55574e-06
-1.19434e-06
2.80937e-06
-2.39404e-06
4.55256e-06
-3.1877e-06
5.28849e-06
-3.65679e-06
5.17003e-06
-3.81489e-06
4.34292e-06
-3.82479e-06
3.35245e-06
-3.82946e-06
2.51276e-06
-3.87003e-06
1.82764e-06
-3.92384e-06
1.29203e-06
-3.96762e-06
7.60809e-07
-3.94652e-06
2.45653e-07
-3.84338e-06
-3.28701e-07
-3.64074e-06
-8.92585e-07
-3.35805e-06
-1.47624e-06
-3.00708e-06
-2.07882e-06
-2.6165e-06
-2.75606e-06
-2.25456e-06
-3.58108e-06
-1.92485e-06
-4.9623e-06
-1.28061e-06
-7.24258e-06
-8.83635e-06
-1.03452e-06
3.84389e-06
-1.92513e-06
5.44317e-06
-2.47827e-06
5.84162e-06
-2.76909e-06
5.46085e-06
-2.82627e-06
4.4001e-06
-2.83731e-06
3.3635e-06
-2.86959e-06
2.54504e-06
-2.93835e-06
1.89639e-06
-3.00571e-06
1.35939e-06
-3.05905e-06
8.14146e-07
-3.05175e-06
2.38352e-07
-2.97092e-06
-4.0953e-07
-2.79755e-06
-1.06595e-06
-2.54351e-06
-1.73028e-06
-2.23145e-06
-2.39088e-06
-1.88193e-06
-3.10558e-06
-1.54121e-06
-3.9218e-06
-1.24014e-06
-5.26336e-06
-9.59209e-07
-7.52352e-06
-9.79556e-06
-7.62996e-07
4.60689e-06
-1.36991e-06
6.05009e-06
-1.75469e-06
6.2264e-06
-1.93275e-06
5.63891e-06
-1.98311e-06
4.45046e-06
-2.00645e-06
3.38685e-06
-2.05124e-06
2.58982e-06
-2.1097e-06
1.95485e-06
-2.16221e-06
1.41191e-06
-2.20446e-06
8.56399e-07
-2.20871e-06
2.42593e-07
-2.15926e-06
-4.58977e-07
-2.03709e-06
-1.18813e-06
-1.84464e-06
-1.92272e-06
-1.60207e-06
-2.63346e-06
-1.33916e-06
-3.36849e-06
-1.09404e-06
-4.16692e-06
-9.00666e-07
-5.45673e-06
-7.15673e-07
-7.70851e-06
-1.05112e-05
-4.57039e-07
5.06393e-06
-8.36336e-07
6.42939e-06
-1.08561e-06
6.47566e-06
-1.19913e-06
5.75243e-06
-1.25056e-06
4.50189e-06
-1.28194e-06
3.41822e-06
-1.31603e-06
2.62392e-06
-1.34445e-06
1.98327e-06
-1.36104e-06
1.4285e-06
-1.37445e-06
8.69808e-07
-1.37774e-06
2.45879e-07
-1.35583e-06
-4.80892e-07
-1.29207e-06
-1.25188e-06
-1.18409e-06
-2.0307e-06
-1.03246e-06
-2.78509e-06
-8.56499e-07
-3.54445e-06
-6.88901e-07
-4.33452e-06
-5.65232e-07
-5.5804e-06
-5.2932e-07
-7.74442e-06
-1.10405e-05
-1.80039e-07
5.24396e-06
-3.67817e-07
6.61717e-06
-4.99501e-07
6.60735e-06
-5.577e-07
5.81063e-06
-6.04894e-07
4.54909e-06
-6.33668e-07
3.44699e-06
-6.51967e-07
2.64222e-06
-6.48345e-07
1.97965e-06
-6.25748e-07
1.40591e-06
-6.03232e-07
8.47292e-07
-5.92408e-07
2.35055e-07
-5.86259e-07
-4.87041e-07
-5.74687e-07
-1.26346e-06
-5.47852e-07
-2.05753e-06
-5.18222e-07
-2.81472e-06
-4.54164e-07
-3.60851e-06
-4.05116e-07
-4.38357e-06
-3.73803e-07
-5.61172e-06
-3.82929e-07
-7.73529e-06
-1.14235e-05
8.46769e-08
5.15929e-06
5.09174e-08
6.65093e-06
3.61042e-08
6.62216e-06
-1.56959e-09
5.8483e-06
-2.57056e-09
4.55009e-06
-4.41399e-08
3.48856e-06
-4.94912e-08
2.64757e-06
-2.57343e-08
1.95589e-06
1.93218e-08
1.36085e-06
6.88856e-08
7.97728e-07
1.0011e-07
2.03831e-07
9.70529e-08
-4.83983e-07
7.64425e-08
-1.24285e-06
1.23644e-08
-1.99345e-06
-1.16207e-08
-2.79074e-06
-1.06497e-07
-3.51363e-06
-9.67847e-08
-4.39328e-06
-1.77208e-07
-5.53129e-06
-2.90275e-07
-7.62223e-06
-1.17138e-05
3.29325e-07
4.82996e-06
4.80329e-07
6.49992e-06
5.78051e-07
6.52444e-06
5.74442e-07
5.85191e-06
5.26632e-07
4.5979e-06
4.98994e-07
3.5162e-06
4.97873e-07
2.64869e-06
5.24197e-07
1.92956e-06
5.76396e-07
1.30865e-06
6.39174e-07
7.34951e-07
6.78679e-07
1.64326e-07
6.67115e-07
-4.72419e-07
5.98925e-07
-1.17466e-06
5.00514e-07
-1.89504e-06
3.56261e-07
-2.64648e-06
2.11738e-07
-3.36911e-06
1.15402e-07
-4.29694e-06
-7.381e-08
-5.34208e-06
-2.1345e-07
-7.48259e-06
-1.19272e-05
5.46151e-07
4.28381e-06
8.68109e-07
6.17797e-06
1.08003e-06
6.31252e-06
1.11512e-06
5.81682e-06
1.06649e-06
4.64652e-06
1.03731e-06
3.54539e-06
1.03422e-06
2.65177e-06
1.05262e-06
1.91116e-06
1.08723e-06
1.27405e-06
1.1278e-06
6.94373e-07
1.1539e-06
1.38226e-07
1.13004e-06
-4.48557e-07
1.03879e-06
-1.08341e-06
8.97115e-07
-1.75337e-06
7.04245e-07
-2.45362e-06
5.17535e-07
-3.1824e-06
3.10929e-07
-4.09034e-06
4.63193e-08
-5.07747e-06
-1.55016e-07
-7.28125e-06
-1.20822e-05
7.79725e-07
3.50409e-06
1.22252e-06
5.73517e-06
1.52403e-06
6.01101e-06
1.66408e-06
5.67677e-06
1.62938e-06
4.68123e-06
1.60258e-06
3.57218e-06
1.59373e-06
2.66062e-06
1.59894e-06
1.90596e-06
1.61012e-06
1.26287e-06
1.6178e-06
6.86696e-07
1.60888e-06
1.47143e-07
1.55756e-06
-3.97231e-07
1.44306e-06
-9.68907e-07
1.27e-06
-1.58031e-06
1.04591e-06
-2.22953e-06
8.03305e-07
-2.93979e-06
5.00367e-07
-3.7874e-06
1.63194e-07
-4.7403e-06
-5.67518e-08
-7.06131e-06
-1.2139e-05
9.53349e-07
2.55074e-06
1.55342e-06
5.1351e-06
1.92545e-06
5.63898e-06
2.17158e-06
5.43064e-06
2.21749e-06
4.63532e-06
2.20956e-06
3.58012e-06
2.20257e-06
2.66761e-06
2.19963e-06
1.9089e-06
2.19278e-06
1.26972e-06
2.17232e-06
7.07151e-07
2.12635e-06
1.93116e-07
2.03968e-06
-3.10561e-07
1.89447e-06
-8.23702e-07
1.69117e-06
-1.377e-06
1.4283e-06
-1.96666e-06
1.1282e-06
-2.63968e-06
7.37797e-07
-3.397e-06
3.26206e-07
-4.32871e-06
4.83972e-08
-6.7835e-06
-1.20906e-05
1.08819e-06
1.46255e-06
1.74587e-06
4.47741e-06
2.22459e-06
5.16026e-06
2.63285e-06
5.02238e-06
2.82955e-06
4.43863e-06
2.89082e-06
3.51885e-06
2.90647e-06
2.65196e-06
2.90444e-06
1.91092e-06
2.88406e-06
1.2901e-06
2.83936e-06
7.51857e-07
2.75926e-06
2.7321e-07
2.63394e-06
-1.85244e-07
2.44954e-06
-6.393e-07
2.20442e-06
-1.13188e-06
1.88478e-06
-1.64702e-06
1.50843e-06
-2.26334e-06
1.01325e-06
-2.90182e-06
4.83495e-07
-3.79895e-06
1.68447e-07
-6.46845e-06
-1.19221e-05
8.85988e-07
5.76564e-07
1.73019e-06
3.63321e-06
2.37495e-06
4.51549e-06
2.94569e-06
4.45164e-06
3.3532e-06
4.03111e-06
3.56733e-06
3.30472e-06
3.66754e-06
2.55174e-06
3.70492e-06
1.87355e-06
3.69459e-06
1.30043e-06
3.6398e-06
8.06644e-07
3.53319e-06
3.79814e-07
3.3765e-06
-2.85477e-08
3.1441e-06
-4.06901e-07
2.84494e-06
-8.32717e-07
2.45007e-06
-1.25216e-06
1.98215e-06
-1.79542e-06
1.37036e-06
-2.29003e-06
7.44883e-07
-3.17347e-06
3.72577e-07
-6.09614e-06
-1.15495e-05
3.79941e-07
1.96623e-07
1.35668e-06
2.65648e-06
2.26759e-06
3.60457e-06
3.07163e-06
3.64761e-06
3.72181e-06
3.38093e-06
4.1694e-06
2.85713e-06
4.44349e-06
2.27766e-06
4.5905e-06
1.72654e-06
4.6352e-06
1.25573e-06
4.60482e-06
8.3702e-07
4.49159e-06
4.93045e-07
4.29748e-06
1.65559e-07
4.00925e-06
-1.18668e-07
3.64016e-06
-4.63622e-07
3.14292e-06
-7.54922e-07
2.5477e-06
-1.2002e-06
1.80273e-06
-1.54506e-06
1.09367e-06
-2.46441e-06
6.98221e-07
-5.70069e-06
-1.08513e-05
-3.13065e-07
5.09688e-07
7.02488e-07
1.64093e-06
1.74282e-06
2.56425e-06
2.81338e-06
2.57704e-06
3.72456e-06
2.46975e-06
4.44242e-06
2.13927e-06
4.94777e-06
1.77232e-06
5.28901e-06
1.38529e-06
5.46e-06
1.08475e-06
5.51372e-06
7.83303e-07
5.43225e-06
5.74514e-07
5.26144e-06
3.36369e-07
4.9627e-06
1.80073e-07
4.5453e-06
-4.62311e-08
3.98991e-06
-1.99522e-07
3.27365e-06
-4.83947e-07
2.45754e-06
-7.28943e-07
1.79159e-06
-1.79846e-06
1.25968e-06
-5.16878e-06
-9.59165e-06
-1.18433e-06
1.69402e-06
-4.73126e-07
9.2972e-07
8.80952e-07
1.21017e-06
2.19943e-06
1.25857e-06
3.37348e-06
1.2957e-06
4.34615e-06
1.1666e-06
5.06787e-06
1.0506e-06
5.59897e-06
8.54193e-07
5.93078e-06
7.52931e-07
6.12224e-06
5.91846e-07
6.15854e-06
5.38218e-07
6.08902e-06
4.05882e-07
5.88907e-06
3.8003e-07
5.57768e-06
2.65159e-07
5.16887e-06
2.09289e-07
4.6473e-06
3.76223e-08
4.1423e-06
-2.23946e-07
3.64684e-06
-1.30301e-06
2.51357e-06
-4.03551e-06
-7.07808e-06
1.69402e-06
2.62374e-06
3.83391e-06
5.09248e-06
6.38817e-06
7.55477e-06
8.60537e-06
9.45956e-06
1.02125e-05
1.08043e-05
1.13426e-05
1.17484e-05
1.21285e-05
1.23936e-05
1.26029e-05
1.26405e-05
1.24166e-05
1.11136e-05
7.07808e-06
)
;

boundaryField
{
    movingWall
    {
        type            calculated;
        value           uniform 0;
    }
    fixedWalls
    {
        type            calculated;
        value           uniform 0;
    }
    frontAndBack
    {
        type            empty;
        value           nonuniform 0();
    }
}


// ************************************************************************* //
