/*--------------------------------*- C++ -*----------------------------------*\
| =========                 |                                                 |
| \\      /  F ield         | OpenFOAM: The Open Source CFD Toolbox           |
|  \\    /   O peration     | Version:  5.0                                   |
|   \\  /    A nd           | Web:      www.OpenFOAM.org                      |
|    \\/     M anipulation  |                                                 |
\*---------------------------------------------------------------------------*/
FoamFile
{
    version     2.0;
    format      ascii;
    class       volVectorField;
    location    "5.5";
    object      U;
}
// * * * * * * * * * * * * * * * * * * * * * * * * * * * * * * * * * * * * * //

dimensions      [0 1 -1 0 0 0 0];

internalField   nonuniform List<vector> 
400
(
(0.00254427 -0.00295504 0)
(0.00525298 -0.00180557 0)
(0.00208658 0.000157494 0)
(-0.00918295 0.00521357 0)
(-0.0362846 0.0154878 0)
(-0.081577 0.0179972 0)
(-0.104698 0.0127425 0)
(-0.130739 0.0128421 0)
(-0.143668 0.00873319 0)
(-0.157227 0.00824768 0)
(-0.163552 0.00484807 0)
(-0.167599 0.00425867 0)
(-0.168737 0.0017799 0)
(-0.165205 -0.000823831 0)
(-0.157001 -0.00334799 0)
(-0.142851 -0.00762254 0)
(-0.121088 -0.0125092 0)
(-0.0909382 -0.0177977 0)
(-0.0542122 -0.0188201 0)
(-0.013023 -0.0052313 0)
(0.00111089 -0.00589459 0)
(-0.00565894 0.00266919 0)
(-0.0225083 0.0166177 0)
(-0.0595984 0.0397919 0)
(-0.0934547 0.0479474 0)
(-0.117269 0.0409386 0)
(-0.132959 0.0350516 0)
(-0.147784 0.0257728 0)
(-0.157453 0.0182006 0)
(-0.165244 0.011387 0)
(-0.168223 0.00515336 0)
(-0.169314 -0.000347835 0)
(-0.166172 -0.00608979 0)
(-0.161755 -0.0116194 0)
(-0.152669 -0.0188826 0)
(-0.140427 -0.0280822 0)
(-0.121744 -0.0411446 0)
(-0.0965206 -0.0586133 0)
(-0.0644737 -0.0732893 0)
(-0.0198971 -0.0544461 0)
(-0.00363134 0.0026165 0)
(-0.0218999 0.0252012 0)
(-0.0530608 0.0533119 0)
(-0.0845276 0.068563 0)
(-0.104176 0.0666724 0)
(-0.117065 0.0570181 0)
(-0.126428 0.0452594 0)
(-0.133618 0.0340524 0)
(-0.133396 0.0251617 0)
(-0.134053 0.0159196 0)
(-0.131767 0.0083047 0)
(-0.129875 0.000429113 0)
(-0.1267 -0.00652833 0)
(-0.121625 -0.0141615 0)
(-0.115139 -0.0227036 0)
(-0.106244 -0.0349968 0)
(-0.0945112 -0.0525308 0)
(-0.0772252 -0.0780831 0)
(-0.0562206 -0.105625 0)
(-0.0218192 -0.106665 0)
(-0.00674843 0.0217791 0)
(-0.0339916 0.054249 0)
(-0.0655473 0.0799812 0)
(-0.0848559 0.0858551 0)
(-0.09623 0.0787752 0)
(-0.101552 0.064642 0)
(-0.102001 0.0505736 0)
(-0.100111 0.0362897 0)
(-0.100108 0.0248063 0)
(-0.101246 0.0141265 0)
(-0.100637 0.00538554 0)
(-0.0990877 -0.0035338 0)
(-0.0953185 -0.0117068 0)
(-0.0904132 -0.0205646 0)
(-0.0840506 -0.0298674 0)
(-0.0768288 -0.0418416 0)
(-0.0682998 -0.0593815 0)
(-0.0549652 -0.0886131 0)
(-0.0423793 -0.126705 0)
(-0.0168253 -0.138149 0)
(-0.00851159 0.0440467 0)
(-0.0383307 0.0790565 0)
(-0.0601008 0.0972332 0)
(-0.0718377 0.0983218 0)
(-0.0779968 0.0851928 0)
(-0.0766283 0.0676083 0)
(-0.0758688 0.0511622 0)
(-0.0759882 0.0367077 0)
(-0.0780419 0.0255967 0)
(-0.079496 0.0147516 0)
(-0.0800491 0.00481491 0)
(-0.0783852 -0.00599028 0)
(-0.0750505 -0.0165238 0)
(-0.0698428 -0.0274798 0)
(-0.0635144 -0.0387963 0)
(-0.0563625 -0.0515264 0)
(-0.0500894 -0.0676854 0)
(-0.0384252 -0.0957697 0)
(-0.0365009 -0.141556 0)
(-0.00837828 -0.168394 0)
(-0.00740234 0.0655798 0)
(-0.0336298 0.100055 0)
(-0.0470882 0.110994 0)
(-0.0561169 0.10602 0)
(-0.0578221 0.0878643 0)
(-0.0554128 0.0678584 0)
(-0.056357 0.0510696 0)
(-0.0572925 0.0376222 0)
(-0.0596905 0.026719 0)
(-0.0611933 0.0157374 0)
(-0.0621035 0.00466222 0)
(-0.0606562 -0.00763281 0)
(-0.0578335 -0.0199838 0)
(-0.0532158 -0.0325339 0)
(-0.0475066 -0.0452364 0)
(-0.04055 -0.0590964 0)
(-0.0362433 -0.0750282 0)
(-0.0238525 -0.101572 0)
(-0.0276367 -0.146954 0)
(-0.00528785 -0.186751 0)
(-0.0057049 0.0839602 0)
(-0.0252205 0.113862 0)
(-0.0330873 0.119634 0)
(-0.0402264 0.110725 0)
(-0.0396725 0.0887911 0)
(-0.0384291 0.0678039 0)
(-0.0402448 0.0515747 0)
(-0.04099 0.0386921 0)
(-0.0429433 0.0277707 0)
(-0.0441539 0.0165788 0)
(-0.0450592 0.00450675 0)
(-0.0440767 -0.00920026 0)
(-0.041999 -0.0233342 0)
(-0.0384769 -0.0374469 0)
(-0.0344652 -0.0511871 0)
(-0.0280831 -0.0657057 0)
(-0.0268827 -0.0815603 0)
(-0.0150219 -0.108057 0)
(-0.0237039 -0.153122 0)
(-0.000392715 -0.204381 0)
(-0.00245456 0.0963558 0)
(-0.016275 0.125056 0)
(-0.0200186 0.127425 0)
(-0.0257807 0.114048 0)
(-0.0242443 0.0896937 0)
(-0.0242655 0.0682797 0)
(-0.0259114 0.0523211 0)
(-0.0261686 0.0395631 0)
(-0.0271831 0.0285608 0)
(-0.0277101 0.0173376 0)
(-0.028255 0.00482919 0)
(-0.0276479 -0.00964232 0)
(-0.0264415 -0.0249828 0)
(-0.0241756 -0.0403858 0)
(-0.0226741 -0.0550279 0)
(-0.016984 -0.069946 0)
(-0.0188378 -0.0851731 0)
(-0.00658127 -0.11006 0)
(-0.0187197 -0.15383 0)
(0.00126694 -0.214656 0)
(6.99373e-05 0.104092 0)
(-0.00761414 0.130328 0)
(-0.00894222 0.130641 0)
(-0.0127186 0.115581 0)
(-0.0110396 0.0903424 0)
(-0.0118145 0.0686368 0)
(-0.0129444 0.0527511 0)
(-0.0127706 0.039796 0)
(-0.0128089 0.0285836 0)
(-0.0124622 0.0174525 0)
(-0.0123791 0.00501378 0)
(-0.0118967 -0.00961424 0)
(-0.0116478 -0.0253519 0)
(-0.0104375 -0.041267 0)
(-0.0118053 -0.0566785 0)
(-0.0072731 -0.0720426 0)
(-0.0127289 -0.0880363 0)
(-0.00107554 -0.112627 0)
(-0.0166593 -0.155147 0)
(0.00455445 -0.225273 0)
(0.00364514 0.104901 0)
(-0.000336168 0.134197 0)
(0.00171785 0.133685 0)
(-0.000765836 0.117064 0)
(0.000594456 0.0914359 0)
(-0.000584559 0.0695948 0)
(-0.00108462 0.0530873 0)
(-0.000757703 0.0395684 0)
(-0.00018358 0.0279244 0)
(0.000893988 0.0167803 0)
(0.00161598 0.00468523 0)
(0.00216749 -0.0094824 0)
(0.00158208 -0.0248768 0)
(0.00192491 -0.0403334 0)
(-0.00162761 -0.0561183 0)
(0.00148918 -0.0710461 0)
(-0.00705505 -0.088002 0)
(0.00480027 -0.11069 0)
(-0.0143352 -0.15335 0)
(0.00576185 -0.230867 0)
(0.00619842 0.101621 0)
(0.00672169 0.132676 0)
(0.0108225 0.132186 0)
(0.0103565 0.11672 0)
(0.0116141 0.091402 0)
(0.0103857 0.0698283 0)
(0.00997608 0.0528652 0)
(0.0102605 0.0388541 0)
(0.0109458 0.0267671 0)
(0.0121116 0.015508 0)
(0.0130067 0.00390634 0)
(0.0136387 -0.00927819 0)
(0.0127592 -0.0238937 0)
(0.0119987 -0.0386609 0)
(0.00730542 -0.0542109 0)
(0.00883687 -0.0689757 0)
(-0.00247315 -0.0872415 0)
(0.00923713 -0.109034 0)
(-0.0141333 -0.151488 0)
(0.00860941 -0.236995 0)
(0.00802762 0.0936852 0)
(0.0128582 0.129535 0)
(0.0199468 0.130169 0)
(0.0209047 0.118093 0)
(0.0222794 0.0925466 0)
(0.0212778 0.0708246 0)
(0.0207971 0.0531556 0)
(0.0209212 0.0384886 0)
(0.0213808 0.0258681 0)
(0.0221645 0.0143182 0)
(0.0226434 0.00302031 0)
(0.0230668 -0.00910557 0)
(0.0217868 -0.0223239 0)
(0.0204683 -0.0362422 0)
(0.0151342 -0.0507569 0)
(0.0152741 -0.0654631 0)
(0.00231017 -0.0837131 0)
(0.0138941 -0.103749 0)
(-0.0138288 -0.147482 0)
(0.0106004 -0.23967 0)
(0.0110339 0.0809181 0)
(0.0186151 0.120991 0)
(0.0281591 0.12375 0)
(0.030999 0.115469 0)
(0.0333374 0.0927639 0)
(0.0326558 0.070523 0)
(0.0320788 0.0526529 0)
(0.0319961 0.0378588 0)
(0.0321082 0.0251493 0)
(0.0323806 0.0136197 0)
(0.0321588 0.00265064 0)
(0.0319397 -0.00858608 0)
(0.0300711 -0.020522 0)
(0.0282532 -0.033257 0)
(0.0225939 -0.0468156 0)
(0.0214196 -0.0613261 0)
(0.00731319 -0.0789886 0)
(0.0174822 -0.0986618 0)
(-0.0145453 -0.143252 0)
(0.014312 -0.242138 0)
(0.0123656 0.0626224 0)
(0.0238459 0.111627 0)
(0.0361258 0.11812 0)
(0.0401424 0.112452 0)
(0.043982 0.0946342 0)
(0.0445317 0.072151 0)
(0.0442413 0.0535622 0)
(0.0441197 0.0382771 0)
(0.0439715 0.0253586 0)
(0.0438418 0.0138916 0)
(0.0429602 0.00327775 0)
(0.0420298 -0.00722583 0)
(0.0393602 -0.0180161 0)
(0.0369812 -0.029619 0)
(0.0307383 -0.0420206 0)
(0.0283822 -0.0558523 0)
(0.0134743 -0.0718793 0)
(0.0215593 -0.0904976 0)
(-0.0137664 -0.137907 0)
(0.0179186 -0.241732 0)
(0.0148829 0.0418069 0)
(0.0270206 0.0961962 0)
(0.0411222 0.108067 0)
(0.0485502 0.104557 0)
(0.0540614 0.0913746 0)
(0.0570766 0.0709371 0)
(0.0579981 0.0527539 0)
(0.0582572 0.0377151 0)
(0.0579664 0.0251982 0)
(0.057525 0.0142888 0)
(0.0560027 0.0044234 0)
(0.0544364 -0.00517729 0)
(0.0507967 -0.0147614 0)
(0.0477707 -0.0251322 0)
(0.0404664 -0.0361707 0)
(0.0367472 -0.0490661 0)
(0.020865 -0.0630319 0)
(0.0255738 -0.081771 0)
(-0.0127264 -0.133072 0)
(0.0236419 -0.241645 0)
(0.00877797 0.0144106 0)
(0.0278201 0.0815913 0)
(0.0428542 0.0986029 0)
(0.0532466 0.097342 0)
(0.0621003 0.087677 0)
(0.0686563 0.0709619 0)
(0.0721516 0.0538225 0)
(0.0739 0.0388521 0)
(0.0740905 0.0264598 0)
(0.0738015 0.0158986 0)
(0.0717576 0.00672194 0)
(0.0698119 -0.00196352 0)
(0.0650866 -0.0103313 0)
(0.0613646 -0.0194572 0)
(0.0525331 -0.0288345 0)
(0.0473003 -0.0404337 0)
(0.0302608 -0.0519632 0)
(0.0304577 -0.070036 0)
(-0.00864318 -0.126557 0)
(0.0301916 -0.239846 0)
(-0.0029897 0.00677204 0)
(0.0192979 0.0594776 0)
(0.0384958 0.0802412 0)
(0.0533424 0.0817967 0)
(0.0667498 0.0755475 0)
(0.0779956 0.0633975 0)
(0.0856373 0.0500408 0)
(0.0904793 0.037193 0)
(0.0922816 0.0260164 0)
(0.0931296 0.0163524 0)
(0.0909273 0.00823198 0)
(0.0889481 0.000731722 0)
(0.0828776 -0.00603132 0)
(0.0782887 -0.0134259 0)
(0.0674602 -0.0204101 0)
(0.0603462 -0.0300332 0)
(0.0412809 -0.0384942 0)
(0.036269 -0.057803 0)
(-0.00204843 -0.123233 0)
(0.0398303 -0.238389 0)
(-0.0167151 0.00104867 0)
(0.00558448 0.0482609 0)
(0.0258244 0.0670301 0)
(0.0454375 0.0682803 0)
(0.0640231 0.0639372 0)
(0.0808438 0.0547161 0)
(0.0930588 0.0443699 0)
(0.102797 0.0348494 0)
(0.107141 0.0267344 0)
(0.110756 0.0191162 0)
(0.109334 0.0129706 0)
(0.108397 0.00676572 0)
(0.10194 0.00197491 0)
(0.0971094 -0.00396059 0)
(0.085074 -0.00840116 0)
(0.0762611 -0.0164304 0)
(0.0553834 -0.0217816 0)
(0.0459885 -0.0444715 0)
(0.0133798 -0.119581 0)
(0.0527704 -0.228196 0)
(-0.0229091 0.0238324 0)
(-0.0216154 0.0189796 0)
(0.00546988 0.0344163 0)
(0.0306929 0.0360969 0)
(0.0547161 0.0358938 0)
(0.0770408 0.0321337 0)
(0.09328 0.0276861 0)
(0.107083 0.0217823 0)
(0.115068 0.0176825 0)
(0.12137 0.0130523 0)
(0.123172 0.0105711 0)
(0.123366 0.00683845 0)
(0.11998 0.00507599 0)
(0.116061 0.00222143 0)
(0.106831 0.000136141 0)
(0.0993431 -0.00401105 0)
(0.0812026 -0.0106583 0)
(0.0751302 -0.0363722 0)
(0.0536627 -0.107416 0)
(0.0775417 -0.179839 0)
(0.0376304 0.0344134 0)
(0.0415098 0.0212727 0)
(0.0591077 0.01808 0)
(0.0899445 0.0168947 0)
(0.112253 0.0183615 0)
(0.139325 0.0168015 0)
(0.159053 0.0165942 0)
(0.180948 0.0140694 0)
(0.195668 0.0137254 0)
(0.211318 0.0113964 0)
(0.221283 0.0114461 0)
(0.231787 0.00936269 0)
(0.238355 0.00976079 0)
(0.244709 0.00774562 0)
(0.248753 0.00842499 0)
(0.251441 0.00597678 0)
(0.248284 0.00441429 0)
(0.236237 -0.00256058 0)
(0.198593 -0.0148103 0)
(0.146959 -0.0346895 0)
)
;

boundaryField
{
    movingWall
    {
        type            fixedValue;
        value           uniform (1 0 0);
    }
    fixedWalls
    {
        type            noSlip;
    }
    frontAndBack
    {
        type            empty;
    }
}


// ************************************************************************* //
