/*--------------------------------*- C++ -*----------------------------------*\
  =========                 |
  \\      /  F ield         | OpenFOAM: The Open Source CFD Toolbox
   \\    /   O peration     | Website:  https://openfoam.org
    \\  /    A nd           | Version:  6
     \\/     M anipulation  |
\*---------------------------------------------------------------------------*/
FoamFile
{
    version     2.0;
    format      ascii;
    class       volScalarField;
    location    "0.3";
    object      p;
}
// * * * * * * * * * * * * * * * * * * * * * * * * * * * * * * * * * * * * * //

dimensions      [0 2 -2 0 0 0 0];

internalField   nonuniform List<scalar> 
400
(
-2.17042e-06
-0.00288053
-0.00826776
-0.0144948
-0.0195691
-0.0216363
-0.0191143
-0.0108585
0.00362016
0.0238411
0.00285853
-4.35582e-05
-0.00431527
-0.00896703
-0.0126857
-0.014009
-0.0115862
-0.00438308
0.00809622
0.025509
0.00834146
0.0041421
-0.000294769
-0.00438335
-0.00742132
-0.00831439
-0.00597386
0.000464951
0.0114451
0.0267088
0.0151048
0.00887387
0.00332875
-0.00107936
-0.00412266
-0.00498178
-0.00278271
0.00317195
0.0132477
0.0272253
0.0215596
0.0130315
0.00591308
0.000706375
-0.00272835
-0.00377644
-0.00172477
0.00398222
0.0136325
0.0270234
0.0261052
0.0151622
0.00620213
-8.49495e-05
-0.00411188
-0.00540972
-0.00337625
0.00243252
0.0122351
0.0258318
0.0269413
0.0134597
0.00247486
-0.00503545
-0.00969155
-0.0111249
-0.00880179
-0.00235979
0.00836346
0.0231684
0.0217642
0.00553054
-0.00763183
-0.0163718
-0.0214916
-0.0227056
-0.0195287
-0.0116643
0.00100654
0.0182965
0.00729304
-0.0120528
-0.0275414
-0.0373461
-0.0424727
-0.0427476
-0.0377616
-0.0273039
-0.011299
0.0101122
-0.0215009
-0.044543
-0.0624666
-0.0728435
-0.0769924
-0.0749755
-0.0665797
-0.0517717
-0.0305418
-0.00291258
0.0469776
0.0677898
0.0829839
0.0917111
0.0943326
0.092077
0.0867081
0.0802495
0.0747863
0.071962
0.0454544
0.0633705
0.0764563
0.0840613
0.0865773
0.0851092
0.0811559
0.0763158
0.0719854
0.0691518
0.0442117
0.0599619
0.0715314
0.0783677
0.0808086
0.0797799
0.0765086
0.0722234
0.067725
0.063617
0.0432953
0.0578276
0.0685893
0.0750251
0.0773671
0.0763659
0.073045
0.0683829
0.0627396
0.0566046
0.0424885
0.0565911
0.0671504
0.0735368
0.075846
0.0746708
0.0708946
0.0653349
0.0580352
0.0495682
0.0416196
0.0562017
0.0673118
0.0741736
0.0767106
0.0753668
0.0709383
0.0641576
0.0548656
0.0438767
0.0404438
0.0566786
0.0693747
0.0775257
0.0808297
0.0795735
0.0745002
0.0663185
0.0547507
0.0409867
0.0385371
0.0579616
0.07369
0.0843843
0.089428
0.0888969
0.0834753
0.0738725
0.0597329
0.042763
0.0352007
0.0598495
0.0806585
0.0958339
0.104291
0.105754
0.100756
0.0899615
0.0729215
0.0520495
0.0294079
0.0619584
0.090738
0.113369
0.128058
0.133887
0.130979
0.119761
0.0995496
0.0737253
-0.0707434
-0.0983283
-0.118521
-0.128246
-0.129467
-0.122784
-0.108453
-0.0868147
-0.0579802
-0.021735
-0.143865
-0.176989
-0.198588
-0.205104
-0.199956
-0.184926
-0.161235
-0.129898
-0.091212
-0.044554
-0.24375
-0.283478
-0.304155
-0.30251
-0.285247
-0.256543
-0.219263
-0.175356
-0.125236
-0.0675743
-0.379501
-0.426428
-0.440376
-0.421204
-0.382582
-0.332789
-0.276876
-0.217647
-0.155225
-0.0870507
-0.570341
-0.620941
-0.613761
-0.56004
-0.486335
-0.406318
-0.326838
-0.250601
-0.176403
-0.0996522
-0.856871
-0.891531
-0.830115
-0.713555
-0.586787
-0.467317
-0.361235
-0.26869
-0.185352
-0.103613
-1.32
-1.27202
-1.09003
-0.870035
-0.670217
-0.504754
-0.373141
-0.268532
-0.181076
-0.0993623
-2.13993
-1.79918
-1.36962
-0.998974
-0.712752
-0.504085
-0.355893
-0.248429
-0.164457
-0.0889595
-3.775
-2.47515
-1.54651
-1.00357
-0.658777
-0.438634
-0.298863
-0.205472
-0.136001
-0.0744248
-6.53311
-3.07666
-1.42451
-0.793363
-0.482266
-0.309196
-0.209924
-0.147375
-0.10135
-0.0589844
0.0204362
0.0639389
0.104266
0.138408
0.163577
0.177746
0.180108
0.170383
0.147211
0.115104
0.00916904
0.0657575
0.120648
0.170427
0.211164
0.239189
0.251961
0.247534
0.222796
0.183233
-0.0021922
0.0678614
0.13877
0.207342
0.268784
0.317494
0.348245
0.355812
0.333045
0.28537
-0.0112178
0.071204
0.158125
0.247557
0.334716
0.412399
0.472071
0.503158
0.490226
0.435102
-0.0160169
0.0761086
0.177269
0.287881
0.404753
0.520614
0.624278
0.69838
0.712901
0.656666
-0.0161847
0.0815377
0.193279
0.322991
0.471272
0.633981
0.80059
0.948627
1.02821
0.99632
-0.013109
0.0850354
0.201894
0.345674
0.523251
0.738641
0.988895
1.2541
1.47048
1.54005
-0.00952423
0.0829339
0.197327
0.345721
0.542985
0.807415
1.15487
1.58759
2.07609
2.47314
-0.00838875
0.0709438
0.172255
0.308567
0.500054
0.780252
1.19616
1.82187
2.84573
4.25325
-0.0104449
0.0507991
0.130743
0.239082
0.393166
0.629034
1.01789
1.75236
3.52708
7.10589
)
;

boundaryField
{
    movingWall
    {
        type            zeroGradient;
    }
    fixedWalls
    {
        type            zeroGradient;
    }
    frontAndBack
    {
        type            empty;
    }
}


// ************************************************************************* //
