/*--------------------------------*- C++ -*----------------------------------*\
  =========                 |
  \\      /  F ield         | OpenFOAM: The Open Source CFD Toolbox
   \\    /   O peration     | Website:  https://openfoam.org
    \\  /    A nd           | Version:  6
     \\/     M anipulation  |
\*---------------------------------------------------------------------------*/
FoamFile
{
    version     2.0;
    format      ascii;
    class       surfaceScalarField;
    location    "0.3";
    object      phi;
}
// * * * * * * * * * * * * * * * * * * * * * * * * * * * * * * * * * * * * * //

dimensions      [0 3 -1 0 0 0 0];

internalField   nonuniform List<scalar> 
760
(
6.58007e-09
-6.57141e-09
4.25869e-09
2.32133e-09
-1.64279e-08
2.06866e-08
-5.7726e-08
4.12981e-08
-1.17754e-07
6.00279e-08
-1.91374e-07
7.36201e-08
-2.70501e-07
7.91269e-08
-3.44383e-07
7.38818e-08
-4.00016e-07
5.5633e-08
2.30273e-08
-4.23043e-07
-1.90614e-09
-4.66527e-09
-3.21382e-08
3.25532e-08
-1.06775e-07
9.53234e-08
-2.32175e-07
1.66698e-07
-4.05492e-07
2.33344e-07
-6.14609e-07
2.82738e-07
-8.3829e-07
3.02808e-07
-1.04683e-06
2.82421e-07
-1.20351e-06
2.12315e-07
8.72023e-08
-1.26769e-06
-1.99087e-08
1.52434e-08
-9.52589e-08
1.07903e-07
-2.41496e-07
2.4156e-07
-4.65446e-07
3.90649e-07
-7.62203e-07
5.30101e-07
-1.11308e-06
6.33613e-07
-1.48465e-06
6.74376e-07
-1.82921e-06
6.26988e-07
-2.08714e-06
4.70237e-07
1.92218e-07
-2.19215e-06
-4.20019e-08
5.72454e-08
-1.74888e-07
2.4079e-07
-4.10209e-07
4.7688e-07
-7.51473e-07
7.31913e-07
-1.18892e-06
9.67547e-07
-1.69573e-06
1.14042e-06
-2.22578e-06
1.20443e-06
-2.71359e-06
1.11479e-06
-3.07708e-06
8.3373e-07
3.40003e-07
-3.22486e-06
-6.68911e-08
1.24136e-07
-2.68075e-07
4.41973e-07
-6.10304e-07
8.19109e-07
-1.09096e-06
1.21257e-06
-1.6922e-06
1.56879e-06
-2.37631e-06
1.82453e-06
-3.08264e-06
1.91076e-06
-3.72707e-06
1.75923e-06
-4.20514e-06
1.3118e-06
5.35247e-07
-4.40039e-06
-9.50318e-08
2.19168e-07
-3.76133e-07
7.23074e-07
-8.45293e-07
1.28827e-06
-1.4916e-06
1.85887e-06
-2.28576e-06
2.36295e-06
-3.17556e-06
2.71434e-06
-4.08294e-06
2.81813e-06
-4.90354e-06
2.57983e-06
-5.51006e-06
1.91832e-06
7.86034e-07
-5.76085e-06
-1.27999e-07
3.47166e-07
-5.03994e-07
1.09907e-06
-1.12483e-06
1.9091e-06
-1.96887e-06
2.70291e-06
-2.99147e-06
3.38555e-06
-4.12155e-06
3.84443e-06
-5.26006e-06
3.95664e-06
-6.28061e-06
3.60038e-06
-7.03299e-06
2.6707e-06
1.10401e-06
-7.35097e-06
-1.6843e-07
5.15596e-07
-6.6029e-07
1.59093e-06
-1.46515e-06
2.71397e-06
-2.54648e-06
3.78424e-06
-3.8387e-06
4.67777e-06
-5.24644e-06
5.25217e-06
-6.64594e-06
5.35613e-06
-7.88808e-06
4.84251e-06
-8.80223e-06
3.58485e-06
1.50291e-06
-9.20113e-06
-2.2025e-07
7.35846e-07
-8.57977e-07
2.22866e-06
-1.88971e-06
3.7457e-06
-3.25554e-06
5.15006e-06
-4.85976e-06
6.28199e-06
-6.57538e-06
6.96779e-06
-8.25116e-06
7.03192e-06
-9.71862e-06
6.30997e-06
-1.07958e-05
4.662e-06
1.99303e-06
-1.12859e-05
-2.89574e-07
1.02542e-06
-1.11675e-06
3.05583e-06
-2.43129e-06
5.06024e-06
-4.13221e-06
6.85098e-06
-6.0773e-06
8.22707e-06
-8.09822e-06
8.98872e-06
-1.00174e-05
8.95108e-06
-1.16603e-05
7.95287e-06
-1.28573e-05
5.85899e-06
-1.34304e-05
2.56618e-06
-4.03241e-07
-1.98016e-08
-3.48758e-07
-5.4483e-08
-2.73881e-07
-7.48771e-08
-1.92649e-07
-8.12323e-08
-1.1705e-07
-7.55991e-08
-5.59703e-08
-6.10802e-08
-1.46982e-08
-4.12721e-08
5.26749e-09
-1.99657e-08
6.825e-09
-1.55751e-09
6.825e-09
-1.21104e-06
-7.64513e-08
-1.05713e-06
-2.08389e-07
-8.46431e-07
-2.85577e-07
-6.17995e-07
-3.09669e-07
-4.0432e-07
-2.89274e-07
-2.28451e-07
-2.3695e-07
-1.02864e-07
-1.66859e-07
-2.96211e-08
-9.32085e-08
-1.07439e-09
-3.01043e-08
5.75064e-09
-2.09847e-06
-1.70137e-07
-1.84494e-06
-4.61915e-07
-1.49748e-06
-6.33042e-07
-1.11902e-06
-6.88121e-07
-7.6131e-07
-6.46987e-07
-4.60461e-07
-5.37799e-07
-2.35849e-07
-3.91472e-07
-9.14143e-08
-2.37643e-07
-1.85479e-08
-1.02971e-07
-1.27972e-08
-3.0936e-06
-3.01397e-07
-2.73715e-06
-8.18374e-07
-2.24617e-06
-1.12401e-06
-1.70695e-06
-1.22735e-06
-1.19037e-06
-1.16357e-06
-7.46446e-07
-9.81721e-07
-4.03324e-07
-7.34594e-07
-1.69809e-07
-4.71158e-07
-4.00976e-08
-2.32682e-07
-5.28948e-08
-4.23119e-06
-4.70597e-07
-3.76569e-06
-1.28387e-06
-3.11884e-06
-1.77086e-06
-2.40037e-06
-1.94582e-06
-1.70174e-06
-1.8622e-06
-1.08946e-06
-1.594e-06
-6.03879e-07
-1.22017e-06
-2.62267e-07
-8.1277e-07
-6.44659e-08
-4.30483e-07
-1.17361e-07
-5.5546e-06
-6.76847e-07
-4.97234e-06
-1.86612e-06
-4.15253e-06
-2.59068e-06
-3.22902e-06
-2.86934e-06
-2.31653e-06
-2.77468e-06
-1.50241e-06
-2.40813e-06
-8.4408e-07
-1.8785e-06
-3.71448e-07
-1.2854e-06
-9.24256e-08
-7.09506e-07
-2.09786e-07
-7.11189e-06
-9.1592e-07
-6.40678e-06
-2.57124e-06
-5.39543e-06
-3.60202e-06
-4.23597e-06
-4.0288e-06
-3.06969e-06
-3.94096e-06
-2.01053e-06
-3.46729e-06
-1.13962e-06
-2.7494e-06
-5.05132e-07
-1.91989e-06
-1.26298e-07
-1.08834e-06
-3.36085e-07
-8.94044e-06
-1.17661e-06
-8.11531e-06
-3.39638e-06
-6.90081e-06
-4.81652e-06
-5.47622e-06
-5.45338e-06
-4.01147e-06
-5.40571e-06
-2.65385e-06
-4.82491e-06
-1.51735e-06
-3.88591e-06
-6.77147e-07
-2.76009e-06
-1.70141e-07
-1.59535e-06
-5.06226e-07
-1.10273e-05
-1.43515e-06
-1.01085e-05
-4.3152e-06
-8.70471e-06
-6.22034e-06
-7.00473e-06
-7.15336e-06
-5.20373e-06
-7.20671e-06
-3.4882e-06
-6.54044e-06
-2.01758e-06
-5.35652e-06
-9.0912e-07
-3.86855e-06
-2.30347e-07
-2.27412e-06
-7.36573e-07
-1.32173e-05
-1.64822e-06
-1.22811e-05
-5.25143e-06
-1.07652e-05
-7.73624e-06
-8.83796e-06
-9.08061e-06
-6.70164e-06
-9.34304e-06
-4.5811e-06
-8.66098e-06
-2.6969e-06
-7.24072e-06
-1.23392e-06
-5.33154e-06
-3.17034e-07
-3.191e-06
-1.05361e-06
-3.56691e-07
1.38211e-06
-1.35245e-06
4.05159e-06
-2.88794e-06
6.59573e-06
-4.79924e-06
8.76228e-06
-6.88681e-06
1.03146e-05
-8.94867e-06
1.10506e-05
-1.08088e-05
1.08112e-05
-1.23319e-05
9.47596e-06
-1.34176e-05
6.94468e-06
3.11815e-06
-1.39696e-05
-4.1332e-07
1.79543e-06
-1.52382e-06
5.1621e-06
-3.15161e-06
8.22351e-06
-5.04839e-06
1.06591e-05
-6.96018e-06
1.22264e-05
-8.68004e-06
1.27704e-05
-1.00799e-05
1.22111e-05
-1.11161e-05
1.05121e-05
-1.18079e-05
7.63652e-06
3.49973e-06
-1.21895e-05
-4.94076e-07
2.28951e-06
-1.73968e-06
6.4077e-06
-3.41735e-06
9.90119e-06
-5.16383e-06
1.24055e-05
-6.68158e-06
1.37442e-05
-7.79849e-06
1.38874e-05
-8.48098e-06
1.28935e-05
-8.81232e-06
1.08435e-05
-8.94885e-06
7.77305e-06
3.61262e-06
-9.06174e-06
-6.23824e-07
2.91333e-06
-2.03435e-06
7.81822e-06
-3.67935e-06
1.15462e-05
-5.06813e-06
1.37943e-05
-5.91326e-06
1.45893e-05
-6.15014e-06
1.41242e-05
-5.89362e-06
1.2637e-05
-5.37196e-06
1.03218e-05
-4.86422e-06
7.26531e-06
3.39808e-06
-4.64968e-06
-8.42989e-07
3.75632e-06
-2.42816e-06
9.40339e-06
-3.85277e-06
1.29708e-05
-4.56085e-06
1.45024e-05
-4.4023e-06
1.44308e-05
-3.51799e-06
1.32399e-05
-2.20592e-06
1.1325e-05
-8.16419e-07
8.93232e-06
3.04949e-07
6.14395e-06
2.86788e-06
8.35152e-07
-1.19932e-06
4.95564e-06
-2.85703e-06
1.10611e-05
-3.66417e-06
1.37779e-05
-3.23373e-06
1.4072e-05
-1.75394e-06
1.2951e-05
3.5753e-07
1.11285e-05
2.65216e-06
9.03033e-06
4.74103e-06
6.84345e-06
6.30424e-06
4.58074e-06
2.1156e-06
7.05651e-06
-1.67963e-06
6.63527e-06
-2.98283e-06
1.23643e-05
-2.47099e-06
1.32661e-05
-4.00923e-07
1.20019e-05
2.53327e-06
1.00168e-05
5.69936e-06
7.96236e-06
8.64208e-06
6.08761e-06
1.10688e-05
4.41671e-06
1.27813e-05
2.86821e-06
1.29876e-06
1.35982e-05
-2.00177e-06
8.63704e-06
-1.81002e-06
1.21726e-05
9.59384e-07
1.04967e-05
4.88529e-06
8.07599e-06
8.93031e-06
5.97175e-06
1.25576e-05
4.33513e-06
1.55398e-05
3.10532e-06
1.78033e-05
2.15324e-06
1.93174e-05
1.3541e-06
5.94403e-07
2.00218e-05
-7.62551e-07
9.39959e-06
3.19807e-06
8.21193e-06
8.63038e-06
5.0644e-06
1.35865e-05
3.11984e-06
1.75799e-05
1.97841e-06
2.0627e-05
1.28794e-06
2.28748e-05
8.57612e-07
2.44611e-05
5.66943e-07
2.54713e-05
3.43894e-07
1.42862e-07
2.59228e-05
9.39959e-06
1.76115e-05
2.26759e-05
2.57958e-05
2.77742e-05
2.90621e-05
2.99197e-05
3.04867e-05
3.08306e-05
3.09734e-05
-1.3873e-05
-1.74473e-06
-1.31395e-05
-5.98494e-06
-1.18212e-05
-9.05452e-06
-9.99922e-06
-1.09026e-05
-7.82163e-06
-1.15206e-05
-5.51032e-06
-1.09723e-05
-3.33464e-06
-9.4164e-06
-1.56312e-06
-7.10306e-06
-4.10795e-07
-4.34333e-06
-1.4644e-06
-1.22399e-05
-1.69432e-06
-1.19128e-05
-6.31206e-06
-1.11339e-05
-9.8334e-06
-9.84327e-06
-1.21933e-05
-8.06432e-06
-1.32996e-05
-5.94399e-06
-1.30926e-05
-3.75028e-06
-1.16101e-05
-1.82377e-06
-9.02956e-06
-4.95776e-07
-5.67132e-06
-1.96018e-06
-9.23823e-06
-1.51783e-06
-9.38776e-06
-6.16253e-06
-9.31841e-06
-9.90275e-06
-8.81999e-06
-1.26917e-05
-7.74994e-06
-1.43696e-05
-6.11217e-06
-1.47304e-05
-4.1052e-06
-1.36171e-05
-2.11033e-06
-1.10244e-05
-6.03314e-07
-7.17833e-06
-2.56349e-06
-4.91016e-06
-1.25734e-06
-5.53254e-06
-5.54016e-06
-6.24867e-06
-9.18662e-06
-6.73245e-06
-1.22079e-05
-6.67097e-06
-1.44311e-05
-5.86496e-06
-1.55364e-05
-4.34207e-06
-1.514e-05
-2.43431e-06
-1.29322e-05
-7.53871e-07
-8.85878e-06
-3.31736e-06
5.39744e-07
-9.61937e-07
-4.67898e-07
-4.53251e-06
-1.90852e-06
-7.746e-06
-3.41965e-06
-1.06968e-05
-4.57506e-06
-1.32757e-05
-4.96095e-06
-1.51505e-05
-4.32774e-06
-1.57732e-05
-2.78912e-06
-1.44708e-05
-9.8317e-07
-1.06647e-05
-4.30053e-06
6.76781e-06
-6.73241e-07
5.53544e-06
-3.30014e-06
3.58345e-06
-5.794e-06
1.2077e-06
-8.32103e-06
-1.17381e-06
-1.08942e-05
-3.01692e-06
-1.33074e-05
-3.75722e-06
-1.50329e-05
-3.07336e-06
-1.51547e-05
-1.32862e-06
-1.24095e-05
-5.62915e-06
1.33429e-05
-4.17975e-07
1.20893e-05
-2.04652e-06
9.96556e-06
-3.67026e-06
7.11853e-06
-5.47399e-06
3.80941e-06
-7.58506e-06
5.17627e-07
-1.00156e-05
-2.01296e-06
-1.25023e-05
-2.90646e-06
-1.42612e-05
-1.74778e-06
-1.35682e-05
-7.37693e-06
1.98146e-05
-2.1075e-07
1.87457e-05
-9.77717e-07
1.68507e-05
-1.7752e-06
1.41134e-05
-2.73674e-06
1.05444e-05
-4.01599e-06
6.31687e-06
-5.78815e-06
1.97979e-06
-8.16521e-06
-1.30562e-06
-1.09758e-05
-1.90475e-06
-1.2969e-05
-9.28169e-06
2.57763e-05
-6.42729e-08
2.50607e-05
-2.62104e-07
2.37606e-05
-4.75108e-07
2.17748e-05
-7.50871e-07
1.89232e-05
-1.16441e-06
1.49866e-05
-1.85154e-06
9.87239e-06
-3.05104e-06
4.06031e-06
-5.16368e-06
-3.99601e-07
-8.50911e-06
-9.68129e-06
3.09091e-05
3.0647e-05
3.01719e-05
2.94211e-05
2.82567e-05
2.64051e-05
2.33541e-05
1.81904e-05
9.68129e-06
)
;

boundaryField
{
    movingWall
    {
        type            calculated;
        value           uniform 0;
    }
    fixedWalls
    {
        type            calculated;
        value           uniform 0;
    }
    frontAndBack
    {
        type            empty;
        value           nonuniform 0();
    }
}


// ************************************************************************* //
