/*--------------------------------*- C++ -*----------------------------------*\
  =========                 |
  \\      /  F ield         | OpenFOAM: The Open Source CFD Toolbox
   \\    /   O peration     | Website:  https://openfoam.org
    \\  /    A nd           | Version:  6
     \\/     M anipulation  |
\*---------------------------------------------------------------------------*/
FoamFile
{
    version     2.0;
    format      ascii;
    class       volVectorField;
    location    "0.3";
    object      U;
}
// * * * * * * * * * * * * * * * * * * * * * * * * * * * * * * * * * * * * * //

dimensions      [0 1 -1 0 0 0 0];

internalField   nonuniform List<vector> 
400
(
(0.000129661 -0.000128652 0)
(0.000242809 -5.13215e-05 0)
(-7.34754e-05 0.000131748 0)
(-0.000976525 0.000311275 0)
(-0.00247216 0.000447268 0)
(-0.00445479 0.000522179 0)
(-0.0067294 0.000527674 0)
(-0.00901937 0.000461275 0)
(-0.0109748 0.000325108 0)
(-0.0121885 0.000126882 0)
(5.93383e-05 -0.000247647 0)
(-0.000233374 0.000246047 0)
(-0.00159529 0.00110115 0)
(-0.00429594 0.00194913 0)
(-0.00837312 0.00260447 0)
(-0.0136254 0.00295974 0)
(-0.0195996 0.00295342 0)
(-0.0256019 0.00256049 0)
(-0.0307237 0.00178907 0)
(-0.0338958 0.000685959 0)
(-0.000115225 4.44152e-05 0)
(-0.00108187 0.00159632 0)
(-0.0037829 0.00375831 0)
(-0.0084232 0.00587822 0)
(-0.0149968 0.00752665 0)
(-0.023222 0.00840508 0)
(-0.0324502 0.00832034 0)
(-0.0416586 0.00718037 0)
(-0.0494863 0.00499559 0)
(-0.0543198 0.00189757 0)
(-0.000300289 0.000926621 0)
(-0.0020149 0.00435065 0)
(-0.00620698 0.00844995 0)
(-0.0129229 0.0123417 0)
(-0.0220261 0.0153306 0)
(-0.0331193 0.0168714 0)
(-0.0453698 0.0165789 0)
(-0.0574771 0.0142499 0)
(-0.0677095 0.00988607 0)
(-0.0740097 0.00373897 0)
(-0.000475984 0.00249442 0)
(-0.00294784 0.00879728 0)
(-0.00870421 0.0155667 0)
(-0.0176072 0.0217293 0)
(-0.0293278 0.0263336 0)
(-0.0433032 0.0285737 0)
(-0.0584991 0.0278464 0)
(-0.0733568 0.0238161 0)
(-0.08583 0.0164738 0)
(-0.0934967 0.00622187 0)
(-0.000645482 0.004828 0)
(-0.00387915 0.0152257 0)
(-0.0112565 0.0255757 0)
(-0.0224591 0.0346044 0)
(-0.0369252 0.0411064 0)
(-0.0538775 0.0440189 0)
(-0.0720486 0.0425256 0)
(-0.0896218 0.0361669 0)
(-0.104274 0.024942 0)
(-0.113285 0.00943839 0)
(-0.000820094 0.00803845 0)
(-0.00484788 0.0239805 0)
(-0.0139363 0.0390236 0)
(-0.0275859 0.051639 0)
(-0.0449655 0.0603511 0)
(-0.0650349 0.0638528 0)
(-0.0862577 0.0611476 0)
(-0.106555 0.0516975 0)
(-0.123365 0.0355565 0)
(-0.13374 0.0135378 0)
(-0.00101547 0.0122986 0)
(-0.00591813 0.0355315 0)
(-0.0168776 0.0566074 0)
(-0.0331826 0.0736538 0)
(-0.0536734 0.0848964 0)
(-0.0769879 0.0888117 0)
(-0.101285 0.0842969 0)
(-0.124234 0.0708303 0)
(-0.143101 0.0486073 0)
(-0.154823 0.0187144 0)
(-0.00125139 0.0178753 0)
(-0.00717511 0.0505501 0)
(-0.020262 0.0792548 0)
(-0.0394974 0.101661 0)
(-0.0632784 0.115674 0)
(-0.0898324 0.119632 0)
(-0.116983 0.112471 0)
(-0.1422 0.0938644 0)
(-0.16272 0.064292 0)
(-0.175582 0.0251662 0)
(-0.00155536 0.0251728 0)
(-0.00873934 0.0699992 0)
(-0.0243347 0.108192 0)
(-0.0468141 0.136836 0)
(-0.0739074 0.153561 0)
(-0.103292 0.156757 0)
(-0.13245 0.145707 0)
(-0.158801 0.120593 0)
(-0.179858 0.0824148 0)
(-0.193163 0.0329607 0)
(-0.0122412 -0.000105531 0)
(-0.0110965 -0.000316406 0)
(-0.00914114 -0.000467743 0)
(-0.00680028 -0.000543444 0)
(-0.00446089 -0.000538105 0)
(-0.00243145 -0.000455991 0)
(-0.00092123 -0.00031019 0)
(-3.16547e-05 -0.000123522 0)
(0.000260396 6.01479e-05 0)
(0.000132625 0.000131469 0)
(-0.0340119 -0.000590798 0)
(-0.0309923 -0.00175022 0)
(-0.0258731 -0.00258985 0)
(-0.0197631 -0.00302525 0)
(-0.0136499 -0.00303337 0)
(-0.00829498 -0.00264688 0)
(-0.00418157 -0.00194823 0)
(-0.00150338 -0.00106765 0)
(-0.000189234 -0.000206539 0)
(6.93318e-05 0.000264895 0)
(-0.0544822 -0.00166618 0)
(-0.0498644 -0.00490025 0)
(-0.0420477 -0.00725108 0)
(-0.032697 -0.00849598 0)
(-0.0232786 -0.00858788 0)
(-0.0149068 -0.0076365 0)
(-0.00827411 -0.00588428 0)
(-0.00365615 -0.00368334 0)
(-0.00101725 -0.00150014 0)
(-9.94552e-05 4.77401e-06 0)
(-0.0742268 -0.00330867 0)
(-0.0682238 -0.00970344 0)
(-0.0580279 -0.0143721 0)
(-0.0457539 -0.0168985 0)
(-0.0332605 -0.0172126 0)
(-0.0219654 -0.0155459 0)
(-0.0127641 -0.0123697 0)
(-0.00605653 -0.00832481 0)
(-0.00193256 -0.00417557 0)
(-0.000278879 -0.000829257 0)
(-0.0938082 -0.0054963 0)
(-0.0865875 -0.0161468 0)
(-0.0742164 -0.0239875 0)
(-0.0591747 -0.0283546 0)
(-0.0436626 -0.0291416 0)
(-0.0293928 -0.0267194 0)
(-0.0174956 -0.02182 0)
(-0.00855485 -0.0153998 0)
(-0.00285356 -0.00852749 0)
(-0.000448949 -0.0023323 0)
(-0.113769 -0.00822954 0)
(-0.105486 -0.024347 0)
(-0.0910789 -0.0363589 0)
(-0.0733206 -0.0432838 0)
(-0.0547241 -0.0449324 0)
(-0.0373174 -0.0417936 0)
(-0.0225203 -0.0348606 0)
(-0.0111691 -0.0254201 0)
(-0.00379138 -0.0148674 0)
(-0.000614972 -0.0045879 0)
(-0.134522 -0.0114828 0)
(-0.12537 -0.034439 0)
(-0.109084 -0.0518224 0)
(-0.0886406 -0.0622371 0)
(-0.0668386 -0.0653161 0)
(-0.0460523 -0.0615937 0)
(-0.0280619 -0.0522906 0)
(-0.0140365 -0.039035 0)
(-0.00480986 -0.0236016 0)
(-0.000793027 -0.00772503 0)
(-0.156074 -0.0151585 0)
(-0.146378 -0.046484 0)
(-0.128522 -0.07068 0)
(-0.105554 -0.0858079 0)
(-0.080488 -0.0911569 0)
(-0.0560593 -0.0871566 0)
(-0.0344899 -0.0751655 0)
(-0.0173927 -0.0571482 0)
(-0.0060135 -0.0353376 0)
(-0.00100695 -0.0119646 0)
(-0.177499 -0.019029 0)
(-0.167833 -0.0603255 0)
(-0.149104 -0.0930149 0)
(-0.124167 -0.114464 0)
(-0.0960692 -0.123356 0)
(-0.0678623 -0.119735 0)
(-0.0422868 -0.104893 0)
(-0.0215638 -0.0810629 0)
(-0.00754841 -0.0510159 0)
(-0.00128959 -0.0176764 0)
(-0.195887 -0.0226536 0)
(-0.187256 -0.0753021 0)
(-0.169109 -0.118274 0)
(-0.143627 -0.14811 0)
(-0.113491 -0.16251 0)
(-0.0818531 -0.16063 0)
(-0.051996 -0.143253 0)
(-0.0269774 -0.11263 0)
(-0.00961952 -0.0720793 0)
(-0.00168823 -0.0254613 0)
(-0.00195982 0.0344461 0)
(-0.0107435 0.0943006 0)
(-0.0292964 0.143561 0)
(-0.0551395 0.178631 0)
(-0.0849538 0.197094 0)
(-0.115705 0.19788 0)
(-0.144634 0.181201 0)
(-0.169478 0.14828 0)
(-0.188582 0.100951 0)
(-0.200668 0.041375 0)
(-0.00252449 0.0455152 0)
(-0.0133704 0.122487 0)
(-0.0352859 0.183061 0)
(-0.0640785 0.223066 0)
(-0.0948758 0.240719 0)
(-0.123907 0.236428 0)
(-0.14857 0.212223 0)
(-0.167572 0.170982 0)
(-0.180857 0.115615 0)
(-0.189069 0.0485024 0)
(-0.00341087 0.0585012 0)
(-0.0170806 0.15399 0)
(-0.0427378 0.224488 0)
(-0.073309 0.26594 0)
(-0.10193 0.278631 0)
(-0.124517 0.265888 0)
(-0.13949 0.232547 0)
(-0.147449 0.183535 0)
(-0.150634 0.122756 0)
(-0.152079 0.0524439 0)
(-0.00498135 0.0744369 0)
(-0.0227945 0.18958 0)
(-0.0523196 0.266535 0)
(-0.0820124 0.303524 0)
(-0.103157 0.30558 0)
(-0.112711 0.280805 0)
(-0.111593 0.237544 0)
(-0.10327 0.18258 0)
(-0.0926259 0.120202 0)
(-0.0849593 0.051933 0)
(-0.00795212 0.0953284 0)
(-0.0318808 0.230114 0)
(-0.0639537 0.306352 0)
(-0.086917 0.329999 0)
(-0.0921884 0.314982 0)
(-0.0805487 0.275742 0)
(-0.0571788 0.223765 0)
(-0.0288706 0.166459 0)
(-0.00263869 0.107319 0)
(0.0149044 0.0465151 0)
(-0.0134602 0.124672 0)
(-0.0454697 0.275184 0)
(-0.0743284 0.337442 0)
(-0.0790425 0.336448 0)
(-0.0568509 0.299427 0)
(-0.0160853 0.246663 0)
(0.0330272 0.190375 0)
(0.0813902 0.136255 0)
(0.121571 0.0856072 0)
(0.147353 0.0369024 0)
(-0.0221149 0.168419 0)
(-0.0609847 0.319578 0)
(-0.0707551 0.346002 0)
(-0.0385168 0.310229 0)
(0.022879 0.252379 0)
(0.0960642 0.193066 0)
(0.168197 0.140563 0)
(0.231023 0.0963137 0)
(0.279321 0.0587322 0)
(0.309122 0.0249477 0)
(-0.0285811 0.232674 0)
(-0.0614624 0.344463 0)
(-0.0194356 0.308204 0)
(0.0711402 0.238779 0)
(0.174423 0.173458 0)
(0.271509 0.121548 0)
(0.354164 0.082891 0)
(0.419341 0.0541964 0)
(0.466206 0.0319809 0)
(0.493977 0.0132373 0)
(0.00799079 0.282862 0)
(0.0201788 0.300573 0)
(0.154039 0.205857 0)
(0.303683 0.130608 0)
(0.425339 0.081954 0)
(0.518789 0.0515562 0)
(0.588814 0.0325882 0)
(0.639453 0.0202331 0)
(0.673782 0.0114943 0)
(0.693291 0.00453078 0)
(0.305485 0.144738 0)
(0.408941 0.125503 0)
(0.582953 0.0698639 0)
(0.70887 0.0365051 0)
(0.781828 0.0194298 0)
(0.827113 0.0107115 0)
(0.857107 0.00615004 0)
(0.877149 0.00357519 0)
(0.890019 0.00192603 0)
(0.896969 0.000684472 0)
(-0.204059 -0.0251333 0)
(-0.197996 -0.0890853 0)
(-0.18308 -0.1433 0)
(-0.160081 -0.183552 0)
(-0.130561 -0.20614 0)
(-0.097205 -0.20857 0)
(-0.0636243 -0.190234 0)
(-0.0339169 -0.152712 0)
(-0.012423 -0.0995893 0)
(-0.00225451 -0.0358695 0)
(-0.192463 -0.0255486 0)
(-0.190576 -0.0979548 0)
(-0.182343 -0.162084 0)
(-0.166402 -0.213415 0)
(-0.142234 -0.246752 0)
(-0.111042 -0.257186 0)
(-0.0760371 -0.241435 0)
(-0.0422264 -0.199021 0)
(-0.0160742 -0.132839 0)
(-0.00304369 -0.0489164 0)
(-0.154412 -0.0238366 0)
(-0.157757 -0.0996454 0)
(-0.159353 -0.170045 0)
(-0.155453 -0.231094 0)
(-0.142719 -0.276627 0)
(-0.119642 -0.299079 0)
(-0.0876427 -0.291226 0)
(-0.051755 -0.248462 0)
(-0.0208726 -0.170933 0)
(-0.00419931 -0.0647154 0)
(-0.0851327 -0.0204805 0)
(-0.09398 -0.093533 0)
(-0.107471 -0.164853 0)
(-0.119934 -0.232116 0)
(-0.125176 -0.28942 0)
(-0.117989 -0.327285 0)
(-0.0960781 -0.333952 0)
(-0.0623967 -0.298271 0)
(-0.0275404 -0.213959 0)
(-0.00607017 -0.084195 0)
(0.017545 -0.0162126 0)
(0.00389551 -0.0803255 0)
(-0.021551 -0.146216 0)
(-0.0524667 -0.21397 0)
(-0.0809228 -0.279637 0)
(-0.0981176 -0.333899 0)
(-0.0963373 -0.361586 0)
(-0.0729699 -0.34345 0)
(-0.0371331 -0.261553 0)
(-0.0093543 -0.109125 0)
(0.152594 -0.0117731 0)
(0.135767 -0.0620573 0)
(0.10091 -0.11644 0)
(0.0532746 -0.177448 0)
(0.000216394 -0.244511 0)
(-0.047905 -0.311515 0)
(-0.078116 -0.363571 0)
(-0.0786493 -0.374957 0)
(-0.0501152 -0.31142 0)
(-0.0150869 -0.14258 0)
(0.315767 -0.00770298 0)
(0.298063 -0.041708 0)
(0.258917 -0.0803088 0)
(0.201058 -0.12745 0)
(0.128587 -0.186047 0)
(0.0494429 -0.255694 0)
(-0.0221175 -0.327566 0)
(-0.0653111 -0.377082 0)
(-0.0624707 -0.355834 0)
(-0.023396 -0.189776 0)
(0.500191 -0.0043069 0)
(0.484249 -0.0226862 0)
(0.447743 -0.0444666 0)
(0.390597 -0.0732518 0)
(0.312205 -0.113533 0)
(0.213959 -0.170125 0)
(0.103212 -0.244645 0)
(-0.000121888 -0.326886 0)
(-0.0552503 -0.373185 0)
(-0.0274785 -0.254466 0)
(0.697333 -0.00181464 0)
(0.685812 -0.00849414 0)
(0.659311 -0.016706 0)
(0.616204 -0.0283791 0)
(0.552667 -0.0467432 0)
(0.463171 -0.0773819 0)
(0.340867 -0.128872 0)
(0.183657 -0.211087 0)
(0.0372225 -0.313896 0)
(0.0155717 -0.295942 0)
(0.898072 -0.000422499 0)
(0.893385 -0.0015944 0)
(0.882984 -0.00308655 0)
(0.865787 -0.00537169 0)
(0.839073 -0.00942713 0)
(0.797384 -0.0174158 0)
(0.727988 -0.0339274 0)
(0.603079 -0.0678114 0)
(0.423145 -0.125925 0)
(0.311856 -0.147041 0)
)
;

boundaryField
{
    movingWall
    {
        type            fixedValue;
        value           uniform (1 0 0);
    }
    fixedWalls
    {
        type            noSlip;
    }
    frontAndBack
    {
        type            empty;
    }
}


// ************************************************************************* //
