/*--------------------------------*- C++ -*----------------------------------*\
| =========                 |                                                 |
| \\      /  F ield         | OpenFOAM: The Open Source CFD Toolbox           |
|  \\    /   O peration     | Version:  5.0                                   |
|   \\  /    A nd           | Web:      www.OpenFOAM.org                      |
|    \\/     M anipulation  |                                                 |
\*---------------------------------------------------------------------------*/
FoamFile
{
    version     2.0;
    format      ascii;
    class       volScalarField;
    location    "2.5";
    object      p;
}
// * * * * * * * * * * * * * * * * * * * * * * * * * * * * * * * * * * * * * //

dimensions      [0 2 -2 0 0 0 0];

internalField   nonuniform List<scalar> 
400
(
4.91216e-08
-1.2706e-05
-4.87203e-05
-0.000102085
-0.000166218
-0.000206843
-0.000101136
0.000197348
-0.000389731
-0.0018073
-0.00314689
-0.0037443
-0.00360007
-0.00294054
-0.00170758
0.000101324
0.00252176
0.00549461
0.00819901
0.00926996
2.71489e-05
8.92086e-06
-3.50852e-05
-0.000107019
-0.000184745
-0.000245995
-0.000377925
-0.000718904
-0.00163029
-0.00299418
-0.00417816
-0.00467687
-0.00445555
-0.00370516
-0.00254199
-0.000995292
0.00102398
0.00361183
0.00643193
0.00794537
5.42533e-05
3.96942e-05
-1.75445e-06
-8.24135e-05
-0.000217657
-0.00045102
-0.000938618
-0.00191907
-0.00326796
-0.00472601
-0.00585762
-0.006217
-0.00571937
-0.00472866
-0.00352874
-0.00219888
-0.000733703
0.00117623
0.00363467
0.00536307
4.90469e-05
3.77478e-05
-2.54767e-06
-8.86791e-05
-0.000277018
-0.00077359
-0.00170391
-0.00322639
-0.00498305
-0.00645951
-0.00742934
-0.00767182
-0.00708176
-0.00593189
-0.00460191
-0.00332025
-0.00217389
-0.000836986
0.000856034
0.00255553
-2.33149e-05
-3.5913e-05
-8.28734e-05
-0.000186225
-0.000445068
-0.001171
-0.0024978
-0.00441462
-0.00646254
-0.00798876
-0.00900293
-0.00932742
-0.00867764
-0.00735396
-0.00582308
-0.00442339
-0.00334503
-0.00232879
-0.00121373
0.000185223
-0.000173623
-0.000192944
-0.000255107
-0.000384996
-0.000696327
-0.00159515
-0.00316129
-0.00524309
-0.00747125
-0.00911169
-0.0101461
-0.0105069
-0.00990449
-0.00849515
-0.00678555
-0.00524147
-0.00417969
-0.00333399
-0.00263048
-0.00150868
-0.000388618
-0.000418375
-0.000501475
-0.000665883
-0.00099395
-0.0018921
-0.0035465
-0.00560627
-0.00786172
-0.00957686
-0.010609
-0.0109325
-0.0103319
-0.00889742
-0.00716466
-0.00560901
-0.00462264
-0.00388025
-0.00345533
-0.00258234
-0.000633012
-0.000673712
-0.000775311
-0.000961904
-0.00131576
-0.00205374
-0.00358708
-0.00545778
-0.00753737
-0.0092155
-0.0101868
-0.0104297
-0.00983205
-0.00848945
-0.00689191
-0.00548442
-0.00466951
-0.00399019
-0.00384534
-0.00312032
-0.000875452
-0.00092041
-0.00103189
-0.00121967
-0.0015606
-0.00216448
-0.00333143
-0.00484619
-0.00650643
-0.00792015
-0.00876617
-0.00895953
-0.00847057
-0.00740238
-0.0061518
-0.00504295
-0.00440752
-0.00383256
-0.00392804
-0.00327919
-0.00108938
-0.00113512
-0.00124165
-0.00141447
-0.00170443
-0.00217376
-0.00296435
-0.00401794
-0.0051889
-0.00621526
-0.00686953
-0.00703182
-0.00675582
-0.0060869
-0.00523368
-0.00442816
-0.00398065
-0.00349601
-0.00380717
-0.00318744
-0.00126341
-0.00130542
-0.0013969
-0.00154432
-0.00177275
-0.00211414
-0.00262198
-0.00329225
-0.00405517
-0.00474325
-0.00522445
-0.00540174
-0.00527107
-0.00486377
-0.00434321
-0.00382389
-0.00357405
-0.00310661
-0.00359186
-0.00297905
-0.00140151
-0.00143418
-0.0015046
-0.00161985
-0.00179198
-0.00203399
-0.00236598
-0.00278398
-0.00326546
-0.00372065
-0.00405173
-0.00419361
-0.00415105
-0.00393177
-0.00365035
-0.0033437
-0.00326008
-0.00271672
-0.00340988
-0.00269875
-0.00151283
-0.00153161
-0.00157677
-0.00165791
-0.00178233
-0.00195542
-0.00218484
-0.00246127
-0.0027813
-0.0030836
-0.00330433
-0.00343166
-0.00342667
-0.00332121
-0.00316979
-0.00298309
-0.00303036
-0.00238278
-0.00329683
-0.00232551
-0.00160177
-0.00160393
-0.00162195
-0.00167143
-0.0017579
-0.00188358
-0.00205166
-0.00225039
-0.00247906
-0.00269512
-0.0028598
-0.0029699
-0.00299884
-0.00293669
-0.00285204
-0.00273433
-0.00288426
-0.00212154
-0.00328536
-0.00187179
-0.00167644
-0.00165846
-0.0016475
-0.00166752
-0.00172354
-0.00181656
-0.00194661
-0.00210121
-0.00227795
-0.00244705
-0.00258244
-0.00268099
-0.00272065
-0.00269648
-0.00265136
-0.00256628
-0.00278371
-0.00194444
-0.00331339
-0.00134556
-0.00174233
-0.00169477
-0.00165414
-0.00164866
-0.00168263
-0.0017543
-0.00186138
-0.00199183
-0.00214088
-0.0022862
-0.00240863
-0.00250252
-0.00255101
-0.00255216
-0.00253236
-0.00244785
-0.00268847
-0.00188456
-0.0032935
-0.000708082
-0.00181722
-0.00172517
-0.0016498
-0.0016179
-0.00163453
-0.00169364
-0.00178823
-0.0019073
-0.00204301
-0.00217789
-0.00229674
-0.00239294
-0.00245452
-0.00248212
-0.00249604
-0.00244996
-0.00265809
-0.00199477
-0.00308673
0.00018954
-0.00195325
-0.00174173
-0.00162715
-0.00157787
-0.00158664
-0.00164194
-0.00173265
-0.00184977
-0.00198071
-0.00211253
-0.00223181
-0.00233117
-0.00239752
-0.00243177
-0.00244168
-0.00238571
-0.00245176
-0.00196045
-0.00248852
0.00256236
-0.00229314
-0.00185303
-0.00167273
-0.00157031
-0.00156211
-0.00161687
-0.001705
-0.00182598
-0.00195566
-0.00209156
-0.00220936
-0.00231414
-0.00238202
-0.00243417
-0.00246448
-0.00252315
-0.00272323
-0.00214814
0.000571086
0.0121883
-0.00335999
-0.00132097
-0.00115253
-0.00124799
-0.00132116
-0.00139286
-0.00150365
-0.00163978
-0.00180093
-0.00195507
-0.00210631
-0.00223133
-0.0023397
-0.00240681
-0.00242681
-0.00221276
-0.00137585
0.00202983
0.0130521
0.0345517
)
;

boundaryField
{
    movingWall
    {
        type            zeroGradient;
    }
    fixedWalls
    {
        type            zeroGradient;
    }
    frontAndBack
    {
        type            empty;
    }
}


// ************************************************************************* //
