/*--------------------------------*- C++ -*----------------------------------*\
| =========                 |                                                 |
| \\      /  F ield         | OpenFOAM: The Open Source CFD Toolbox           |
|  \\    /   O peration     | Version:  5.0                                   |
|   \\  /    A nd           | Web:      www.OpenFOAM.org                      |
|    \\/     M anipulation  |                                                 |
\*---------------------------------------------------------------------------*/
FoamFile
{
    version     2.0;
    format      ascii;
    class       surfaceScalarField;
    location    "2.5";
    object      phi;
}
// * * * * * * * * * * * * * * * * * * * * * * * * * * * * * * * * * * * * * //

dimensions      [0 3 -1 0 0 0 0];

internalField   nonuniform List<scalar> 
760
(
-1.40495e-09
1.40014e-09
-7.19398e-09
5.78889e-09
-4.72879e-09
-2.46539e-09
-1.19382e-08
7.20928e-09
-9.7219e-08
8.52806e-08
-4.14284e-07
3.17065e-07
-1.23605e-06
8.21762e-07
-2.75685e-06
1.52081e-06
-4.50608e-06
1.74923e-06
-5.75414e-06
1.24806e-06
-6.53451e-06
7.80371e-07
-7.00195e-06
4.6744e-07
-7.06519e-06
6.32393e-08
-6.91029e-06
-1.54905e-07
-6.55988e-06
-3.50413e-07
-5.9659e-06
-5.93976e-07
-5.08984e-06
-8.76054e-07
-3.69067e-06
-1.39918e-06
-1.62888e-06
-2.06179e-06
-1.62888e-06
-1.0317e-07
1.0457e-07
-2.44412e-07
1.47031e-07
-3.93385e-07
1.46507e-07
-6.105e-07
2.24325e-07
-1.07676e-06
5.51544e-07
-2.05096e-06
1.29126e-06
-3.5467e-06
2.3175e-06
-4.95049e-06
2.92459e-06
-5.79662e-06
2.59535e-06
-6.4062e-06
1.85764e-06
-6.91481e-06
1.28899e-06
-7.06877e-06
6.21398e-07
-6.94182e-06
-6.37137e-08
-6.65417e-06
-4.42551e-07
-6.1689e-06
-8.35686e-07
-5.61441e-06
-1.14847e-06
-4.88256e-06
-1.6079e-06
-3.7735e-06
-2.50825e-06
-2.07288e-06
-3.76241e-06
-3.70175e-06
-2.02234e-07
3.06804e-07
-4.72754e-07
4.17551e-07
-7.90095e-07
4.63848e-07
-1.24688e-06
6.81108e-07
-1.99847e-06
1.30314e-06
-3.12978e-06
2.42257e-06
-4.2818e-06
3.46952e-06
-5.10145e-06
3.74425e-06
-5.61121e-06
3.10511e-06
-5.90984e-06
2.15628e-06
-6.00603e-06
1.38517e-06
-5.82731e-06
4.42681e-07
-5.51457e-06
-3.76452e-07
-5.01262e-06
-9.44505e-07
-4.45721e-06
-1.3911e-06
-3.92533e-06
-1.68035e-06
-3.42076e-06
-2.11247e-06
-2.85293e-06
-3.07607e-06
-1.79204e-06
-4.8233e-06
-5.4938e-06
-2.68976e-07
5.75781e-07
-6.26317e-07
7.74892e-07
-1.05299e-06
8.90524e-07
-1.61933e-06
1.24745e-06
-2.39254e-06
2.07635e-06
-3.35197e-06
3.38199e-06
-4.07428e-06
4.19183e-06
-4.53772e-06
4.20769e-06
-4.83098e-06
3.39836e-06
-5.01862e-06
2.34392e-06
-5.07794e-06
1.44449e-06
-4.98609e-06
3.50831e-07
-4.64573e-06
-7.16806e-07
-4.0611e-06
-1.52914e-06
-3.39555e-06
-2.05664e-06
-2.76178e-06
-2.31412e-06
-2.30702e-06
-2.56723e-06
-2.03408e-06
-3.349e-06
-1.32945e-06
-5.52793e-06
-6.82325e-06
-2.87707e-07
8.63488e-07
-6.71202e-07
1.15839e-06
-1.11625e-06
1.33557e-06
-1.64984e-06
1.78104e-06
-2.27297e-06
2.69948e-06
-2.89114e-06
4.00016e-06
-3.26513e-06
4.56582e-06
-3.54332e-06
4.48588e-06
-3.75588e-06
3.61093e-06
-3.93309e-06
2.52113e-06
-4.00186e-06
1.51325e-06
-3.94198e-06
2.90953e-07
-3.69432e-06
-9.64461e-07
-3.2022e-06
-2.02126e-06
-2.57887e-06
-2.67998e-06
-1.96608e-06
-2.92691e-06
-1.48829e-06
-3.04502e-06
-1.24445e-06
-3.59284e-06
-1.02086e-06
-5.75152e-06
-7.84411e-06
-2.56901e-07
1.12039e-06
-6.06254e-07
1.50774e-06
-9.91371e-07
1.72069e-06
-1.39158e-06
2.18125e-06
-1.76437e-06
3.07227e-06
-2.0185e-06
4.25429e-06
-2.13915e-06
4.68648e-06
-2.26656e-06
4.61329e-06
-2.43399e-06
3.77836e-06
-2.53786e-06
2.625e-06
-2.54108e-06
1.51647e-06
-2.45677e-06
2.06635e-07
-2.27759e-06
-1.14364e-06
-1.97476e-06
-2.32409e-06
-1.5943e-06
-3.06043e-06
-1.17131e-06
-3.34991e-06
-8.78152e-07
-3.33817e-06
-7.73411e-07
-3.69758e-06
-6.80222e-07
-5.84471e-06
-8.52433e-06
-1.89487e-07
1.30988e-06
-4.60201e-07
1.77845e-06
-7.40511e-07
2.001e-06
-9.69903e-07
2.41065e-06
-1.06396e-06
3.16633e-06
-1.00291e-06
4.19324e-06
-9.68092e-07
4.65166e-06
-9.07132e-07
4.55233e-06
-9.59948e-07
3.83118e-06
-9.96218e-07
2.66127e-06
-9.33069e-07
1.45332e-06
-8.4475e-07
1.18315e-07
-6.99857e-07
-1.28853e-06
-5.68559e-07
-2.45539e-06
-4.62418e-07
-3.16658e-06
-3.87056e-07
-3.42527e-06
-3.60974e-07
-3.36425e-06
-4.2018e-07
-3.63838e-06
-5.08221e-07
-5.75667e-06
-9.03256e-06
-1.05911e-07
1.41579e-06
-2.7844e-07
1.95098e-06
-4.44396e-07
2.16695e-06
-5.26922e-07
2.49317e-06
-4.12377e-07
3.05179e-06
-7.35323e-08
3.85439e-06
2.06289e-07
4.37184e-06
4.76523e-07
4.28209e-06
6.21327e-07
3.68637e-06
6.79403e-07
2.6032e-06
7.56001e-07
1.37673e-06
7.72394e-07
1.01922e-07
7.56763e-07
-1.2729e-06
6.86543e-07
-2.38517e-06
5.10728e-07
-2.99076e-06
2.84749e-07
-3.19929e-06
7.30363e-08
-3.15254e-06
-1.7868e-07
-3.38666e-06
-3.21267e-07
-5.61408e-06
-9.35382e-06
-1.96707e-08
1.43546e-06
-1.01991e-07
2.0333e-06
-1.65086e-07
2.23005e-06
-1.40778e-07
2.46886e-06
7.92923e-08
2.83172e-06
5.61333e-07
3.37235e-06
1.11621e-06
3.81696e-06
1.58873e-06
3.80958e-06
1.92929e-06
3.34581e-06
2.09656e-06
2.43592e-06
2.16374e-06
1.30955e-06
2.13789e-06
1.27766e-07
1.92362e-06
-1.05862e-06
1.57352e-06
-2.03507e-06
1.14693e-06
-2.56417e-06
7.23228e-07
-2.77559e-06
3.19702e-07
-2.74901e-06
-3.72269e-08
-3.02973e-06
-2.60846e-07
-5.39046e-06
-9.61467e-06
3.85854e-08
1.39687e-06
3.84737e-08
2.03342e-06
5.43368e-08
2.21418e-06
1.44271e-07
2.37893e-06
3.76104e-07
2.59988e-06
8.50653e-07
2.8978e-06
1.48963e-06
3.17797e-06
2.09938e-06
3.19983e-06
2.57315e-06
2.87204e-06
2.83995e-06
2.16913e-06
2.93105e-06
1.21845e-06
2.86149e-06
1.97331e-07
2.5443e-06
-7.41436e-07
2.07779e-06
-1.56856e-06
1.54228e-06
-2.02867e-06
1.00147e-06
-2.23477e-06
4.75385e-07
-2.22293e-06
7.02807e-08
-2.62463e-06
-1.5487e-07
-5.16531e-06
-9.76954e-06
7.94626e-08
1.31741e-06
1.3264e-07
1.98024e-06
1.98167e-07
2.14866e-06
3.26269e-07
2.25083e-06
5.57887e-07
2.36827e-06
9.50449e-07
2.50524e-06
1.5023e-06
2.62613e-06
2.09797e-06
2.60416e-06
2.60472e-06
2.36529e-06
2.91478e-06
1.85906e-06
3.01634e-06
1.11689e-06
2.94075e-06
2.72925e-07
2.64554e-06
-4.46228e-07
2.16936e-06
-1.09238e-06
1.61051e-06
-1.46982e-06
1.05975e-06
-1.68401e-06
5.18838e-07
-1.68202e-06
1.12947e-07
-2.21874e-06
-1.55372e-07
-4.89699e-06
-9.92491e-06
9.86059e-08
1.2188e-06
1.83769e-07
1.89507e-06
2.7958e-07
2.05285e-06
4.23849e-07
2.10656e-06
6.41508e-07
2.15061e-06
9.57594e-07
2.18915e-06
1.38054e-06
2.20318e-06
1.85564e-06
2.12906e-06
2.29877e-06
1.92216e-06
2.61556e-06
1.54228e-06
2.72969e-06
1.00275e-06
2.65619e-06
3.4643e-07
2.38889e-06
-1.78932e-07
1.96774e-06
-6.71226e-07
1.46575e-06
-9.67831e-07
9.77664e-07
-1.19592e-06
5.06099e-07
-1.21046e-06
1.02904e-07
-1.81554e-06
-1.37886e-07
-4.6562e-06
-1.00628e-05
9.65198e-08
1.12229e-06
1.95954e-07
1.79564e-06
3.08163e-07
1.94064e-06
4.56301e-07
1.95842e-06
6.55716e-07
1.95119e-06
9.15142e-07
1.92973e-06
1.23555e-06
1.88277e-06
1.58715e-06
1.77746e-06
1.92479e-06
1.58452e-06
2.17426e-06
1.29281e-06
2.26781e-06
9.09207e-07
2.20235e-06
4.11885e-07
1.99368e-06
2.97373e-08
1.67076e-06
-3.48302e-07
1.27365e-06
-5.70719e-07
8.71379e-07
-7.93653e-07
4.75858e-07
-8.14936e-07
4.51606e-08
-1.38484e-06
-2.03392e-07
-4.40765e-06
-1.02662e-05
7.47429e-08
1.04754e-06
1.69374e-07
1.70101e-06
2.84783e-07
1.82523e-06
4.32822e-07
1.81038e-06
6.18415e-07
1.7656e-06
8.41071e-07
1.70707e-06
1.09545e-06
1.6284e-06
1.36033e-06
1.51258e-06
1.60722e-06
1.33762e-06
1.79305e-06
1.10698e-06
1.87187e-06
8.30394e-07
1.81546e-06
4.68292e-07
1.65265e-06
1.9255e-07
1.40815e-06
-1.03804e-07
1.10669e-06
-2.69264e-07
7.80191e-07
-4.67151e-07
4.71194e-07
-5.05939e-07
8.24481e-08
-9.96096e-07
-1.20121e-07
-4.20508e-06
-1.03863e-05
3.26946e-08
1.01485e-06
1.16595e-07
1.61711e-06
2.36103e-07
1.70572e-06
3.82462e-07
1.66402e-06
5.54964e-07
1.5931e-06
7.50127e-07
1.51191e-06
9.6039e-07
1.41814e-06
1.16907e-06
1.3039e-06
1.35511e-06
1.15158e-06
1.49215e-06
9.6994e-07
1.5572e-06
7.65344e-07
1.51732e-06
5.08171e-07
1.39739e-06
3.12477e-07
1.19643e-06
9.716e-08
9.64672e-07
-3.75069e-08
6.63669e-07
-1.66149e-07
4.21913e-07
-2.64182e-07
5.4884e-08
-6.29067e-07
-6.3786e-08
-4.08641e-06
-1.04501e-05
-3.45719e-08
1.04942e-06
2.77145e-08
1.55482e-06
1.34382e-07
1.59905e-06
2.84095e-07
1.51431e-06
4.58597e-07
1.4186e-06
6.44693e-07
1.32581e-06
8.33801e-07
1.22903e-06
1.01355e-06
1.12415e-06
1.16777e-06
9.97361e-07
1.27829e-06
8.5942e-07
1.33489e-06
7.08744e-07
1.30968e-06
5.33379e-07
1.21582e-06
4.06342e-07
1.0533e-06
2.59679e-07
8.56584e-07
1.59206e-07
5.8438e-07
1.06056e-07
4.12644e-07
-9.24461e-08
1.2736e-07
-3.43783e-07
1.16092e-07
-4.07514e-06
-1.0334e-05
-1.26662e-07
1.17608e-06
-8.48448e-08
1.51301e-06
5.22018e-08
1.46201e-06
2.09951e-07
1.35656e-06
3.78675e-07
1.24987e-06
5.51855e-07
1.15263e-06
7.23335e-07
1.05755e-06
8.79722e-07
9.67759e-07
1.01098e-06
8.66107e-07
1.10229e-06
7.68109e-07
1.15058e-06
6.6045e-07
1.13601e-06
5.47948e-07
1.07777e-06
4.64581e-07
9.77056e-07
3.60397e-07
8.43809e-07
2.92453e-07
6.65554e-07
2.8431e-07
4.54169e-07
1.18939e-07
3.32193e-07
-2.21807e-07
4.17567e-07
-4.16052e-06
-9.91644e-06
-3.92363e-07
1.56844e-06
-3.52561e-07
1.4732e-06
-1.76468e-07
1.28591e-06
2.10258e-08
1.15907e-06
2.26341e-07
1.04456e-06
4.23441e-07
9.55533e-07
6.1532e-07
8.65669e-07
7.85052e-07
7.98028e-07
9.30168e-07
7.20991e-07
1.03487e-06
6.63408e-07
1.10253e-06
5.92786e-07
1.11998e-06
5.305e-07
1.09781e-06
4.86747e-07
1.01442e-06
4.43789e-07
8.79654e-07
4.27221e-07
7.13742e-07
4.50222e-07
5.77914e-07
2.54767e-07
8.08546e-07
-4.52439e-07
9.49012e-07
-4.30098e-06
-8.96742e-06
-6.3888e-07
2.20732e-06
-4.21139e-07
1.25546e-06
-9.5911e-08
9.60686e-07
1.9303e-07
8.70125e-07
4.67539e-07
7.70048e-07
7.0905e-07
7.14021e-07
9.53414e-07
6.21305e-07
1.15622e-06
5.95216e-07
1.3577e-06
5.19512e-07
1.50564e-06
5.15468e-07
1.65107e-06
4.47361e-07
1.72677e-06
4.54803e-07
1.81198e-06
4.01534e-07
1.82189e-06
4.33882e-07
1.88039e-06
3.6872e-07
1.98767e-06
3.42935e-07
2.19142e-06
5.10202e-08
2.62661e-06
-8.87628e-07
2.11984e-06
-3.79421e-06
-6.84759e-06
2.20732e-06
3.46279e-06
4.42347e-06
5.2936e-06
6.06365e-06
6.77767e-06
7.39897e-06
7.99419e-06
8.5137e-06
9.02917e-06
9.47653e-06
9.93133e-06
1.03329e-05
1.07667e-05
1.11355e-05
1.14784e-05
1.15294e-05
1.06418e-05
6.84759e-06
)
;

boundaryField
{
    movingWall
    {
        type            calculated;
        value           uniform 0;
    }
    fixedWalls
    {
        type            calculated;
        value           uniform 0;
    }
    frontAndBack
    {
        type            empty;
        value           nonuniform 0();
    }
}


// ************************************************************************* //
