/*--------------------------------*- C++ -*----------------------------------*\
| =========                 |                                                 |
| \\      /  F ield         | OpenFOAM: The Open Source CFD Toolbox           |
|  \\    /   O peration     | Version:  5.0                                   |
|   \\  /    A nd           | Web:      www.OpenFOAM.org                      |
|    \\/     M anipulation  |                                                 |
\*---------------------------------------------------------------------------*/
FoamFile
{
    version     2.0;
    format      ascii;
    class       volVectorField;
    location    "2.5";
    object      U;
}
// * * * * * * * * * * * * * * * * * * * * * * * * * * * * * * * * * * * * * //

dimensions      [0 1 -1 0 0 0 0];

internalField   nonuniform List<vector> 
400
(
(0.000100804 -0.00044231 0)
(-0.000134675 -0.000567938 0)
(-0.000147601 -0.000679915 0)
(-5.66038e-05 -0.000698707 0)
(-0.000520552 -0.000574416 0)
(-0.00381008 -0.00019138 0)
(-0.0135255 0.00120208 0)
(-0.0313776 0.0092226 0)
(-0.0759389 0.0210914 0)
(-0.110784 0.0150414 0)
(-0.126998 0.00950783 0)
(-0.137459 0.00815924 0)
(-0.141064 0.00341643 0)
(-0.140689 0.000444958 0)
(-0.135629 -0.00150047 0)
(-0.125921 -0.00519942 0)
(-0.109792 -0.00857426 0)
(-0.0859922 -0.0144008 0)
(-0.0524111 -0.0205157 0)
(-0.0165223 -0.00943344 0)
(-0.000609039 0.000531951 0)
(-0.00341629 0.000846016 0)
(-0.0062196 0.000573798 0)
(-0.00952316 0.000924382 0)
(-0.0151119 0.00392691 0)
(-0.0274014 0.0135288 0)
(-0.0532499 0.0323189 0)
(-0.0848281 0.0480149 0)
(-0.110693 0.0438428 0)
(-0.126127 0.0311509 0)
(-0.136652 0.0194517 0)
(-0.143266 0.00905646 0)
(-0.139077 -0.00164577 0)
(-0.135978 -0.00785946 0)
(-0.127828 -0.0146086 0)
(-0.118517 -0.0218892 0)
(-0.106242 -0.0309894 0)
(-0.0841746 -0.0473053 0)
(-0.0566973 -0.0669989 0)
(-0.0235564 -0.0569373 0)
(-0.00137099 0.00389817 0)
(-0.00655448 0.00536568 0)
(-0.0121114 0.00566172 0)
(-0.0191324 0.00852576 0)
(-0.0300909 0.0186168 0)
(-0.0481273 0.0383419 0)
(-0.0742067 0.0599177 0)
(-0.0955702 0.0677651 0)
(-0.110577 0.0567264 0)
(-0.118839 0.0392971 0)
(-0.122946 0.0281442 0)
(-0.120695 0.0128768 0)
(-0.111074 -0.00148078 0)
(-0.10416 -0.010831 0)
(-0.0926961 -0.0199525 0)
(-0.0843902 -0.0260517 0)
(-0.0759175 -0.037319 0)
(-0.0622645 -0.0594974 0)
(-0.0443458 -0.0912047 0)
(-0.0222484 -0.0986461 0)
(-0.00190393 0.00873432 0)
(-0.00863566 0.0117837 0)
(-0.0161152 0.0134115 0)
(-0.0253321 0.0193955 0)
(-0.0375514 0.0344677 0)
(-0.0560082 0.0590985 0)
(-0.0753204 0.0777395 0)
(-0.0887684 0.0790079 0)
(-0.0978714 0.0636192 0)
(-0.100551 0.0438779 0)
(-0.103797 0.0265614 0)
(-0.102828 0.00629515 0)
(-0.0955119 -0.0126787 0)
(-0.0852838 -0.0263533 0)
(-0.072713 -0.035775 0)
(-0.0604801 -0.0411251 0)
(-0.0529789 -0.0474773 0)
(-0.0415496 -0.0659918 0)
(-0.0367791 -0.107918 0)
(-0.0102297 -0.12725 0)
(-0.00201076 0.0143338 0)
(-0.00924679 0.0192371 0)
(-0.017265 0.0222449 0)
(-0.0264677 0.0305723 0)
(-0.0368326 0.0485247 0)
(-0.0520567 0.0750172 0)
(-0.0621593 0.0878795 0)
(-0.0709949 0.0863357 0)
(-0.0766929 0.0689398 0)
(-0.0773598 0.0472076 0)
(-0.0820026 0.0280236 0)
(-0.0820604 0.00543339 0)
(-0.0755524 -0.018717 0)
(-0.0671917 -0.0385521 0)
(-0.0563342 -0.0505114 0)
(-0.0435484 -0.0550812 0)
(-0.0372206 -0.057838 0)
(-0.0240335 -0.0697159 0)
(-0.0277562 -0.113703 0)
(-0.00759362 -0.149619 0)
(-0.00167996 0.0198434 0)
(-0.00834425 0.0266309 0)
(-0.0155443 0.0306199 0)
(-0.0231731 0.0399319 0)
(-0.0296748 0.05854 0)
(-0.0388941 0.0837447 0)
(-0.042453 0.0928819 0)
(-0.0452716 0.0912014 0)
(-0.0503819 0.0733747 0)
(-0.0501535 0.0507483 0)
(-0.0523915 0.02979 0)
(-0.0521961 0.00477939 0)
(-0.0468656 -0.0223405 0)
(-0.0401464 -0.0461265 0)
(-0.0348897 -0.0602841 0)
(-0.0258294 -0.0645338 0)
(-0.0229996 -0.0654347 0)
(-0.0123344 -0.073907 0)
(-0.0214126 -0.115798 0)
(-0.00142984 -0.163988 0)
(-0.00104311 0.0243812 0)
(-0.00630785 0.0329561 0)
(-0.0117573 0.0373383 0)
(-0.0170391 0.0461768 0)
(-0.0196043 0.0628974 0)
(-0.0206611 0.0857798 0)
(-0.0210533 0.0942256 0)
(-0.019289 0.0928885 0)
(-0.0202664 0.0769694 0)
(-0.0202093 0.0523469 0)
(-0.0201578 0.0286063 0)
(-0.0185917 0.00244934 0)
(-0.0156959 -0.0248148 0)
(-0.00983072 -0.0482329 0)
(-0.0107537 -0.0633366 0)
(-0.00594695 -0.0691604 0)
(-0.0109559 -0.0675004 0)
(-0.00277245 -0.0728503 0)
(-0.0164815 -0.115487 0)
(-0.000330479 -0.175081 0)
(-0.000352063 0.0274756 0)
(-0.00371754 0.0374721 0)
(-0.00716233 0.0418738 0)
(-0.00992032 0.0492773 0)
(-0.0100234 0.0624852 0)
(-0.00460106 0.0811742 0)
(0.000840827 0.0923402 0)
(0.00661593 0.0905385 0)
(0.0102078 0.0781403 0)
(0.0124253 0.0552329 0)
(0.0136673 0.0298263 0)
(0.0155556 0.00248026 0)
(0.0150086 -0.0255093 0)
(0.0178947 -0.0475643 0)
(0.0120896 -0.0601299 0)
(0.010434 -0.0648809 0)
(-0.000640334 -0.0644467 0)
(0.00435225 -0.0692603 0)
(-0.0134376 -0.111836 0)
(0.0033859 -0.182325 0)
(0.000489952 0.0287709 0)
(-0.00119372 0.0400799 0)
(-0.00277663 0.0442359 0)
(-0.00338766 0.0498868 0)
(-0.00177537 0.059091 0)
(0.00556627 0.0726198 0)
(0.0164633 0.0837433 0)
(0.0264275 0.0840099 0)
(0.0342354 0.0739675 0)
(0.0395644 0.0541034 0)
(0.0418094 0.0292837 0)
(0.0436066 0.00284989 0)
(0.0415938 -0.0221135 0)
(0.0385635 -0.0434418 0)
(0.0274101 -0.0553768 0)
(0.0212217 -0.0599248 0)
(0.00550541 -0.0588257 0)
(0.00920978 -0.0636024 0)
(-0.0117046 -0.10971 0)
(0.00388165 -0.188318 0)
(0.000798419 0.0284938 0)
(0.000834974 0.0409607 0)
(0.00076139 0.0447584 0)
(0.00162034 0.0487779 0)
(0.00450409 0.054521 0)
(0.0113932 0.0627861 0)
(0.0230311 0.0704889 0)
(0.0355169 0.0716498 0)
(0.0460055 0.0643882 0)
(0.0541447 0.0483269 0)
(0.0567397 0.0273348 0)
(0.059673 0.00384971 0)
(0.0543954 -0.0172581 0)
(0.0494166 -0.0349189 0)
(0.03635 -0.0443833 0)
(0.028323 -0.0483451 0)
(0.00930956 -0.0485976 0)
(0.0123994 -0.0556007 0)
(-0.0111309 -0.103533 0)
(0.00708423 -0.19256 0)
(0.00104076 0.0274052 0)
(0.00221885 0.0404083 0)
(0.00318395 0.043905 0)
(0.00497401 0.0465766 0)
(0.00841473 0.0498666 0)
(0.0144258 0.0539633 0)
(0.0239741 0.0576597 0)
(0.0357993 0.0576755 0)
(0.0463915 0.0521846 0)
(0.055989 0.0403239 0)
(0.0586017 0.0231917 0)
(0.0609334 0.00485117 0)
(0.0565715 -0.0113579 0)
(0.0507479 -0.0258237 0)
(0.0376643 -0.0346232 0)
(0.0295193 -0.0392132 0)
(0.00999192 -0.0389279 0)
(0.0141031 -0.0483591 0)
(-0.0117134 -0.100675 0)
(0.00776821 -0.196693 0)
(0.00108801 0.025448 0)
(0.00293157 0.0389895 0)
(0.00453514 0.0422655 0)
(0.0068147 0.0437683 0)
(0.0103555 0.0452832 0)
(0.0155822 0.0467956 0)
(0.0228275 0.047717 0)
(0.0323694 0.0462841 0)
(0.0406656 0.0415382 0)
(0.0502844 0.0327297 0)
(0.0528616 0.0203963 0)
(0.0553783 0.0057316 0)
(0.0510732 -0.00622032 0)
(0.0454537 -0.0178573 0)
(0.0337472 -0.0245156 0)
(0.0273611 -0.0287095 0)
(0.0083669 -0.0288298 0)
(0.0158827 -0.0396304 0)
(-0.014087 -0.0944916 0)
(0.010943 -0.200132 0)
(0.000942861 0.0234304 0)
(0.00301157 0.036953 0)
(0.00497166 0.0400238 0)
(0.00748424 0.0407748 0)
(0.0108967 0.0411007 0)
(0.0154614 0.0411034 0)
(0.0210527 0.0404641 0)
(0.0284179 0.0382533 0)
(0.0341465 0.033939 0)
(0.0422989 0.0272142 0)
(0.0437988 0.0182213 0)
(0.0459138 0.00705511 0)
(0.042288 -0.00142671 0)
(0.0382012 -0.0100711 0)
(0.0286 -0.0151758 0)
(0.0247316 -0.0197305 0)
(0.00635875 -0.0200451 0)
(0.0171734 -0.0323301 0)
(-0.0171084 -0.0920927 0)
(0.0122948 -0.203874 0)
(0.000605329 0.0216562 0)
(0.00250274 0.0350862 0)
(0.00445499 0.0377998 0)
(0.00704065 0.0377376 0)
(0.0103454 0.0371182 0)
(0.0144464 0.0362193 0)
(0.0190233 0.0347926 0)
(0.0247941 0.032368 0)
(0.0289022 0.0284977 0)
(0.0350095 0.0232276 0)
(0.0361476 0.0168166 0)
(0.0379332 0.0084576 0)
(0.0347074 0.00224796 0)
(0.0320475 -0.00446284 0)
(0.0240144 -0.00824916 0)
(0.0226021 -0.0125931 0)
(0.00457138 -0.0131217 0)
(0.0193042 -0.0234779 0)
(-0.0186759 -0.0851318 0)
(0.0168776 -0.206582 0)
(-2.1279e-06 0.0204492 0)
(0.00142228 0.0330147 0)
(0.00344227 0.0352682 0)
(0.00609226 0.0348224 0)
(0.0092378 0.0336909 0)
(0.0129445 0.0322106 0)
(0.016859 0.0303661 0)
(0.0214799 0.0279152 0)
(0.0247342 0.0245167 0)
(0.029157 0.0203165 0)
(0.0301142 0.0155636 0)
(0.0315901 0.00955173 0)
(0.0290641 0.00497211 0)
(0.0271903 4.82711e-05 0)
(0.0201704 -0.00289587 0)
(0.0207609 -0.00652022 0)
(0.00177977 -0.00758133 0)
(0.0201943 -0.0158241 0)
(-0.0206681 -0.0835864 0)
(0.0206725 -0.209926 0)
(-0.000980448 0.0205103 0)
(-0.000212533 0.0320174 0)
(0.00142565 0.0331932 0)
(0.00400254 0.0318166 0)
(0.00732207 0.0300279 0)
(0.010955 0.0282506 0)
(0.0146307 0.0262693 0)
(0.0185915 0.0240353 0)
(0.021518 0.0211698 0)
(0.0249152 0.0179525 0)
(0.0258622 0.0144343 0)
(0.0270862 0.0102118 0)
(0.0252541 0.00710369 0)
(0.0236517 0.00364087 0)
(0.0176871 0.00138013 0)
(0.0188481 0.000277255 0)
(0.000772533 -0.00254745 0)
(0.0207672 -0.00866944 0)
(-0.0195811 -0.081368 0)
(0.0280811 -0.211945 0)
(-0.00177957 0.0221856 0)
(-0.00280375 0.0300444 0)
(-0.000394613 0.0306689 0)
(0.00252919 0.0289699 0)
(0.00576509 0.0270504 0)
(0.00924343 0.0251001 0)
(0.0126485 0.0231592 0)
(0.016099 0.0211241 0)
(0.0187419 0.0187917 0)
(0.0214301 0.016332 0)
(0.022367 0.0136617 0)
(0.023334 0.0107643 0)
(0.022134 0.00870404 0)
(0.0212381 0.00625372 0)
(0.0170791 0.00446471 0)
(0.0186661 0.00336435 0)
(0.00436288 -0.00176432 0)
(0.0185163 -0.00644139 0)
(-0.0115096 -0.0846131 0)
(0.0361077 -0.215322 0)
(-0.00538129 0.026263 0)
(-0.00894403 0.0317234 0)
(-0.00550244 0.0290217 0)
(-0.00166418 0.0260693 0)
(0.00246527 0.023427 0)
(0.0064732 0.021429 0)
(0.010351 0.0194654 0)
(0.0140533 0.0178595 0)
(0.0171274 0.0160171 0)
(0.0198539 0.0145416 0)
(0.0213291 0.012762 0)
(0.022516 0.0112053 0)
(0.0222905 0.00996009 0)
(0.0215956 0.00854393 0)
(0.0183591 0.0078609 0)
(0.0182636 0.00911276 0)
(0.00752048 0.00772811 0)
(0.0195992 -0.00124883 0)
(0.00270208 -0.0937975 0)
(0.0492263 -0.213183 0)
(-0.00962171 0.0396036 0)
(-0.0133982 0.0233928 0)
(-0.0044478 0.0189446 0)
(0.000748218 0.0178719 0)
(0.00671994 0.0164821 0)
(0.0116482 0.0150429 0)
(0.0167758 0.0135835 0)
(0.0209971 0.0125629 0)
(0.0252905 0.0115097 0)
(0.0286109 0.0107486 0)
(0.0317207 0.00991466 0)
(0.0338786 0.00907451 0)
(0.0356002 0.00881155 0)
(0.0366015 0.00848291 0)
(0.0370524 0.00834857 0)
(0.0392994 0.00678779 0)
(0.035662 -0.000642829 0)
(0.0456759 -0.0230262 0)
(0.0417715 -0.101219 0)
(0.0718979 -0.175141 0)
(0.0463311 0.0416932 0)
(0.0528822 0.0312499 0)
(0.0776542 0.0235361 0)
(0.0959515 0.0199184 0)
(0.116344 0.0166883 0)
(0.127189 0.0157176 0)
(0.143609 0.0132117 0)
(0.152453 0.0130776 0)
(0.16652 0.0108193 0)
(0.174324 0.0113197 0)
(0.186101 0.00913266 0)
(0.193411 0.0101573 0)
(0.203015 0.0079099 0)
(0.209874 0.00948547 0)
(0.216751 0.00711707 0)
(0.223186 0.00896059 0)
(0.226706 0.00434599 0)
(0.220346 -0.00168139 0)
(0.192039 -0.0127084 0)
(0.143645 -0.0309362 0)
)
;

boundaryField
{
    movingWall
    {
        type            fixedValue;
        value           uniform (1 0 0);
    }
    fixedWalls
    {
        type            noSlip;
    }
    frontAndBack
    {
        type            empty;
    }
}


// ************************************************************************* //
