/*--------------------------------*- C++ -*----------------------------------*\
| =========                 |                                                 |
| \\      /  F ield         | OpenFOAM: The Open Source CFD Toolbox           |
|  \\    /   O peration     | Version:  5.0                                   |
|   \\  /    A nd           | Web:      www.OpenFOAM.org                      |
|    \\/     M anipulation  |                                                 |
\*---------------------------------------------------------------------------*/
FoamFile
{
    version     2.0;
    format      ascii;
    class       volScalarField;
    location    "2.5";
    object      yPlus;
}
// * * * * * * * * * * * * * * * * * * * * * * * * * * * * * * * * * * * * * //

dimensions      [0 0 0 0 0 0 0];

internalField   uniform 0;

boundaryField
{
    movingWall
    {
        type            calculated;
        value           nonuniform List<scalar> 
20
(
15.4481
15.3918
15.1875
15.0355
14.8645
14.7729
14.633
14.5572
14.4356
14.368
14.2649
14.2008
14.1158
14.0551
13.9936
13.9362
13.9042
13.9612
14.2132
14.6365
)
;
    }
    fixedWalls
    {
        type            calculated;
        value           nonuniform List<scalar> 
60
(
0.336768
0.449622
1.01639
1.49494
1.90225
2.23128
2.47
2.62097
2.68212
2.6695
2.61844
2.52345
2.42123
2.32727
2.26104
2.26571
2.35886
2.58885
3.19201
3.94743
2.18092
3.92485
5.02802
5.64935
6.11988
6.40301
6.61591
6.75197
6.86218
6.94065
7.0151
7.07868
7.1457
7.19844
7.26191
7.3109
7.38797
7.39582
6.87976
6.06091
0.336768
0.381997
0.417059
0.418628
0.440226
0.976586
1.84247
2.85941
4.43885
5.28679
5.64255
5.8673
5.93939
5.93063
5.82317
5.61312
5.24705
4.66877
3.75111
2.18092
)
;
    }
    frontAndBack
    {
        type            empty;
    }
}


// ************************************************************************* //
