/*--------------------------------*- C++ -*----------------------------------*\
  =========                 |
  \\      /  F ield         | OpenFOAM: The Open Source CFD Toolbox
   \\    /   O peration     | Website:  https://openfoam.org
    \\  /    A nd           | Version:  6
     \\/     M anipulation  |
\*---------------------------------------------------------------------------*/
FoamFile
{
    version     2.0;
    format      ascii;
    class       volVectorField;
    location    "0.5";
    object      wallShearStress;
}
// * * * * * * * * * * * * * * * * * * * * * * * * * * * * * * * * * * * * * //

dimensions      [0 2 -2 0 0 0 0];

internalField   uniform (0 0 0);

boundaryField
{
    movingWall
    {
        type            calculated;
        value           nonuniform List<vector> 
20
(
(3.07073 -1.24291 0)
(2.34097 -0.850378 0)
(1.68671 -0.590536 0)
(1.25172 -0.357727 0)
(0.995897 -0.211791 0)
(0.834961 -0.129263 0)
(0.728285 -0.0805309 0)
(0.657959 -0.0494659 0)
(0.614066 -0.027856 0)
(0.590952 -0.0110377 0)
(0.585935 0.00398194 0)
(0.598592 0.0196274 0)
(0.630752 0.0387182 0)
(0.687201 0.0656795 0)
(0.77728 0.108711 0)
(0.918709 0.185049 0)
(1.15292 0.329571 0)
(1.57604 0.575653 0)
(2.25606 0.863697 0)
(3.03748 1.28017 0)
)
;
    }
    fixedWalls
    {
        type            calculated;
        value           nonuniform List<vector> 
60
(
(-0.00162235 0.000825482 0)
(0.0013199 0.00145676 0)
(0.0052701 -0.00351486 0)
(0.00883245 -0.0131696 0)
(0.0120089 -0.0268352 0)
(0.0150104 -0.0442071 0)
(0.0180446 -0.0652239 0)
(0.0212996 -0.0900193 0)
(0.0249671 -0.118894 0)
(0.0293014 -0.152324 0)
(0.034728 -0.191021 0)
(0.0420347 -0.23611 0)
(0.0527012 -0.289492 0)
(0.0693952 -0.35453 0)
(0.0965271 -0.43726 0)
(0.140083 -0.549013 0)
(0.200419 -0.714659 0)
(0.222079 -0.989457 0)
(-0.111485 -1.45469 0)
(-1.88791 -2.27333 0)
(-0.00174713 -0.000824077 0)
(0.00104579 -0.00165219 0)
(0.0048625 0.00297536 0)
(0.00831925 0.0121728 0)
(0.0114536 0.0253193 0)
(0.0145431 0.0422232 0)
(0.0178818 0.0630261 0)
(0.0217589 0.0881678 0)
(0.026478 0.118368 0)
(0.032412 0.154632 0)
(0.040102 0.198304 0)
(0.0504341 0.251209 0)
(0.0649268 0.315956 0)
(0.0861099 0.396499 0)
(0.117752 0.499088 0)
(0.163775 0.634507 0)
(0.218105 0.825552 0)
(0.209623 1.11583 0)
(-0.18395 1.53503 0)
(-1.95155 2.26717 0)
(-0.000871729 0.00159125 0)
(-0.00137505 -0.00155641 0)
(0.00393364 -0.00543991 0)
(0.0134435 -0.00820472 0)
(0.0253358 -0.00958875 0)
(0.0379704 -0.00969879 0)
(0.0499195 -0.00873615 0)
(0.0600107 -0.00692728 0)
(0.067343 -0.00449618 0)
(0.0712829 -0.00166293 0)
(0.0714715 0.0013461 0)
(0.0678397 0.00428765 0)
(0.0606347 0.00689549 0)
(0.0504432 0.00888229 0)
(0.0382103 0.00995226 0)
(0.0252296 0.00983135 0)
(0.013085 0.00832011 0)
(0.00353746 0.00537907 0)
(-0.0015999 0.00139237 0)
(-0.000896858 -0.0017022 0)
)
;
    }
    frontAndBack
    {
        type            empty;
    }
}


// ************************************************************************* //
