/*--------------------------------*- C++ -*----------------------------------*\
| =========                 |                                                 |
| \\      /  F ield         | OpenFOAM: The Open Source CFD Toolbox           |
|  \\    /   O peration     | Version:  5.0                                   |
|   \\  /    A nd           | Web:      www.OpenFOAM.org                      |
|    \\/     M anipulation  |                                                 |
\*---------------------------------------------------------------------------*/
FoamFile
{
    version     2.0;
    format      ascii;
    class       volScalarField;
    location    "7";
    object      k;
}
// * * * * * * * * * * * * * * * * * * * * * * * * * * * * * * * * * * * * * //

dimensions      [0 2 -2 0 0 0 0];

internalField   nonuniform List<scalar> 
400
(
5.51056e-10
2.48228e-09
1.56735e-08
8.9751e-08
2.60769e-07
4.80342e-07
6.98209e-07
9.04119e-07
1.09053e-06
1.27056e-06
1.44162e-06
1.6378e-06
1.85087e-06
1.94368e-06
1.90977e-06
1.58673e-06
1.03122e-06
6.06754e-07
2.90509e-07
1.44447e-07
6.6891e-09
6.86711e-08
2.27661e-07
7.0663e-07
1.88035e-06
4.20621e-06
7.68352e-06
1.20162e-05
1.61693e-05
2.01319e-05
2.26581e-05
2.38866e-05
2.42009e-05
2.24719e-05
1.92714e-05
1.47055e-05
8.50159e-06
3.77992e-06
1.47739e-06
5.05367e-07
5.47661e-08
3.90084e-07
1.17849e-06
3.5207e-06
9.78586e-06
2.21491e-05
4.1726e-05
6.64559e-05
8.72151e-05
9.93272e-05
0.000104797
0.00010629
0.000100634
9.02992e-05
7.65858e-05
5.87605e-05
3.46644e-05
1.35204e-05
4.12231e-06
9.10371e-07
1.66413e-07
1.18887e-06
3.8003e-06
1.20323e-05
3.45613e-05
7.89769e-05
0.000125614
0.000150548
0.000163369
0.000168252
0.000168996
0.000164171
0.000155841
0.000148039
0.000135631
0.000119963
9.40836e-05
3.73919e-05
9.54053e-06
1.24997e-06
4.03929e-07
2.95881e-06
1.01344e-05
3.24464e-05
8.01932e-05
0.00013125
0.000155982
0.000166951
0.000171363
0.00017211
0.000170304
0.000165937
0.000162035
0.000157479
0.000150723
0.000140099
0.000124035
7.49919e-05
1.72153e-05
1.54228e-06
7.15533e-07
5.81244e-06
1.94626e-05
5.50527e-05
0.000113426
0.000145709
0.000159206
0.00016452
0.000165449
0.000161629
0.000157862
0.000156102
0.000155521
0.000154954
0.000152401
0.000144248
0.00013487
9.45083e-05
2.62651e-05
1.78396e-06
1.01343e-06
8.53602e-06
2.79168e-05
7.26505e-05
0.000126017
0.000147642
0.000155075
0.000154506
0.000144042
0.000136355
0.000133279
0.000132922
0.000136341
0.000139823
0.000140891
0.000137529
0.000135758
0.000103384
3.4666e-05
1.9801e-06
1.04396e-06
1.04198e-05
3.32582e-05
8.36473e-05
0.000131945
0.000145046
0.000145176
0.00013193
0.000119174
0.000112731
0.000110216
0.000111796
0.000116087
0.000123376
0.000128595
0.000126368
0.000122642
0.000106128
4.30289e-05
2.15733e-06
9.74658e-07
1.10367e-05
3.59324e-05
9.10186e-05
0.000132129
0.000139432
0.00013064
0.000110026
9.75475e-05
9.21321e-05
9.09132e-05
9.37652e-05
9.87191e-05
0.00010554
0.000116351
0.00012081
0.000113254
0.00010376
4.78213e-05
2.31034e-06
7.86223e-07
1.07056e-05
3.53318e-05
9.0503e-05
0.000131548
0.000135129
0.000118095
9.41301e-05
7.9903e-05
7.36761e-05
7.38557e-05
7.75708e-05
8.29129e-05
8.97193e-05
9.67081e-05
0.000111499
0.000102386
0.000101461
5.30376e-05
2.51251e-06
6.26085e-07
9.76758e-06
3.31783e-05
8.74706e-05
0.000129246
0.000129356
0.000107649
8.08789e-05
6.57431e-05
5.8607e-05
5.88089e-05
6.24121e-05
6.78705e-05
7.76824e-05
8.37679e-05
0.000104
9.43867e-05
9.83999e-05
5.56412e-05
2.71021e-06
5.01043e-07
8.02625e-06
2.85707e-05
8.04831e-05
0.000123549
0.000123986
0.000106831
7.87797e-05
6.06226e-05
5.16284e-05
5.01392e-05
5.2257e-05
5.81154e-05
6.95536e-05
7.85257e-05
9.6092e-05
9.04259e-05
9.74325e-05
5.74737e-05
2.98881e-06
3.86094e-07
5.84448e-06
2.24413e-05
6.69734e-05
0.00011447
0.000117876
0.000107587
8.19483e-05
6.26166e-05
5.24414e-05
4.98265e-05
5.06981e-05
5.52962e-05
6.70943e-05
7.71906e-05
9.33705e-05
8.91584e-05
9.69304e-05
5.81326e-05
3.33581e-06
2.75052e-07
3.77581e-06
1.57268e-05
5.08395e-05
9.89384e-05
0.000109254
0.000105633
9.12927e-05
7.04983e-05
5.83866e-05
5.47645e-05
5.57779e-05
5.9553e-05
6.9276e-05
7.87903e-05
9.2609e-05
8.89935e-05
9.71572e-05
5.63292e-05
3.79205e-06
1.66338e-07
2.09164e-06
9.71769e-06
3.14112e-05
7.91009e-05
9.85461e-05
9.99093e-05
9.59597e-05
8.70224e-05
7.59444e-05
7.02577e-05
7.09547e-05
7.41369e-05
8.22226e-05
8.72467e-05
9.3409e-05
8.9712e-05
9.55338e-05
5.28187e-05
4.01004e-06
7.51286e-08
1.02076e-06
5.1772e-06
1.72274e-05
4.98212e-05
7.97884e-05
8.95703e-05
9.13785e-05
8.98553e-05
8.7967e-05
8.63512e-05
8.7002e-05
8.78084e-05
8.96382e-05
9.05093e-05
9.30839e-05
8.94259e-05
9.08737e-05
4.68163e-05
4.09708e-06
2.54177e-08
4.92368e-07
2.53979e-06
8.35672e-06
2.415e-05
4.83526e-05
6.62601e-05
7.66522e-05
8.10466e-05
8.35075e-05
8.4703e-05
8.63138e-05
8.95524e-05
9.02517e-05
8.93561e-05
8.74235e-05
8.29914e-05
8.12852e-05
3.78128e-05
3.94872e-06
2.00768e-08
2.67446e-07
1.21514e-06
3.77047e-06
9.66456e-06
2.24018e-05
3.47387e-05
4.46178e-05
5.2464e-05
5.70347e-05
6.10229e-05
6.2098e-05
6.22994e-05
6.2403e-05
6.35832e-05
6.77061e-05
7.44045e-05
6.76231e-05
2.68854e-05
3.39647e-06
5.59241e-08
3.13924e-07
9.77363e-07
2.2174e-06
4.95856e-06
8.31077e-06
1.53179e-05
1.8693e-05
2.55485e-05
2.87722e-05
3.54349e-05
3.96413e-05
4.63989e-05
5.44144e-05
6.17326e-05
7.81411e-05
7.8964e-05
6.05751e-05
1.68188e-05
2.56406e-06
2.16039e-08
5.09254e-08
1.52499e-07
2.66688e-07
5.75517e-07
8.52642e-07
1.56039e-06
1.84542e-06
2.47721e-06
2.66681e-06
3.09405e-06
3.19701e-06
3.51302e-06
3.69702e-06
4.07641e-06
3.89501e-06
3.62393e-06
3.35559e-06
2.78316e-06
1.54097e-06
)
;

boundaryField
{
    movingWall
    {
        type            kqRWallFunction;
        value           nonuniform List<scalar> 
20
(
2.16039e-08
5.09254e-08
1.52499e-07
2.66688e-07
5.75517e-07
8.52642e-07
1.56039e-06
1.84542e-06
2.47721e-06
2.66681e-06
3.09405e-06
3.19701e-06
3.51302e-06
3.69702e-06
4.07641e-06
3.89501e-06
3.62393e-06
3.35559e-06
2.78316e-06
1.54097e-06
)
;
    }
    fixedWalls
    {
        type            kqRWallFunction;
        value           nonuniform List<scalar> 
60
(
5.51056e-10
6.6891e-09
5.47661e-08
1.66413e-07
4.03929e-07
7.15533e-07
1.01343e-06
1.04396e-06
9.74658e-07
7.86223e-07
6.26085e-07
5.01043e-07
3.86094e-07
2.75052e-07
1.66338e-07
7.51286e-08
2.54177e-08
2.00768e-08
5.59241e-08
2.16039e-08
1.44447e-07
5.05367e-07
9.10371e-07
1.24997e-06
1.54228e-06
1.78396e-06
1.9801e-06
2.15733e-06
2.31034e-06
2.51251e-06
2.71021e-06
2.98881e-06
3.33581e-06
3.79205e-06
4.01004e-06
4.09708e-06
3.94872e-06
3.39647e-06
2.56406e-06
1.54097e-06
5.51056e-10
2.48228e-09
1.56735e-08
8.9751e-08
2.60769e-07
4.80342e-07
6.98209e-07
9.04119e-07
1.09053e-06
1.27056e-06
1.44162e-06
1.6378e-06
1.85087e-06
1.94368e-06
1.90977e-06
1.58673e-06
1.03122e-06
6.06754e-07
2.90509e-07
1.44447e-07
)
;
    }
    frontAndBack
    {
        type            empty;
    }
}


// ************************************************************************* //
