/*--------------------------------*- C++ -*----------------------------------*\
| =========                 |                                                 |
| \\      /  F ield         | OpenFOAM: The Open Source CFD Toolbox           |
|  \\    /   O peration     | Version:  5.0                                   |
|   \\  /    A nd           | Web:      www.OpenFOAM.org                      |
|    \\/     M anipulation  |                                                 |
\*---------------------------------------------------------------------------*/
FoamFile
{
    version     2.0;
    format      ascii;
    class       volScalarField;
    location    "7";
    object      nut;
}
// * * * * * * * * * * * * * * * * * * * * * * * * * * * * * * * * * * * * * //

dimensions      [0 2 -1 0 0 0 0];

internalField   nonuniform List<scalar> 
400
(
4.30513e-12
1.93928e-11
1.22449e-10
7.0118e-10
2.03726e-09
3.75267e-09
5.45476e-09
7.06343e-09
8.51979e-09
9.92624e-09
1.12626e-08
1.27953e-08
1.44599e-08
1.5185e-08
1.49201e-08
1.23963e-08
8.05641e-09
4.74026e-09
2.2696e-09
1.12849e-09
5.22586e-11
1.28875e-09
2.99171e-09
8.50362e-09
2.37624e-08
6.22687e-08
1.32248e-07
2.48765e-07
3.79901e-07
5.40689e-07
6.50812e-07
7.07338e-07
7.09219e-07
6.09774e-07
4.88444e-07
3.29071e-07
1.61993e-07
5.7459e-08
1.61792e-08
3.94818e-09
4.2786e-10
7.63919e-09
2.06551e-08
6.36247e-08
2.26358e-07
6.44299e-07
1.47833e-06
2.70095e-06
3.85843e-06
4.60978e-06
4.96334e-06
5.05728e-06
4.64666e-06
3.93619e-06
3.01204e-06
1.9632e-06
9.08872e-07
2.55042e-07
4.93014e-08
7.11228e-09
1.3001e-09
2.54974e-08
8.36523e-08
3.19297e-07
1.28205e-06
3.60748e-06
6.9682e-06
9.34816e-06
1.1356e-05
1.24055e-05
1.29398e-05
1.27163e-05
1.18736e-05
1.0453e-05
8.50663e-06
6.17614e-06
3.59596e-06
9.43409e-07
1.31529e-07
9.76541e-09
3.1557e-09
7.09394e-08
2.77143e-07
1.20199e-06
4.20439e-06
8.49107e-06
1.25953e-05
1.53356e-05
1.79321e-05
1.92519e-05
1.96932e-05
1.93358e-05
1.79612e-05
1.59417e-05
1.31169e-05
9.71869e-06
6.07038e-06
2.29498e-06
2.64839e-07
1.2049e-08
5.5901e-09
1.54898e-07
6.49199e-07
2.66954e-06
7.8232e-06
1.26006e-05
1.75496e-05
2.08693e-05
2.3799e-05
2.46867e-05
2.4709e-05
2.4469e-05
2.27824e-05
2.05743e-05
1.73348e-05
1.32042e-05
8.56754e-06
3.60704e-06
4.56029e-07
1.39372e-08
7.91741e-09
2.52541e-07
1.08755e-06
4.30534e-06
1.07136e-05
1.60427e-05
2.17444e-05
2.51061e-05
2.61893e-05
2.61008e-05
2.59553e-05
2.52911e-05
2.40828e-05
2.19632e-05
1.87647e-05
1.482e-05
1.00732e-05
4.46835e-06
6.52046e-07
1.54695e-08
8.15592e-09
3.26476e-07
1.47827e-06
5.76033e-06
1.30331e-05
1.87416e-05
2.43554e-05
2.57751e-05
2.57444e-05
2.55018e-05
2.52722e-05
2.47739e-05
2.3921e-05
2.2521e-05
1.96508e-05
1.56559e-05
1.08167e-05
5.32284e-06
8.84515e-07
1.68541e-08
7.61451e-09
3.72998e-07
1.74009e-06
6.79106e-06
1.42081e-05
2.00871e-05
2.46889e-05
2.44613e-05
2.37838e-05
2.33396e-05
2.32215e-05
2.30132e-05
2.24863e-05
2.13129e-05
1.95774e-05
1.61112e-05
1.09682e-05
5.62086e-06
1.03552e-06
1.80495e-08
6.14237e-09
3.59381e-07
1.83471e-06
7.12515e-06
1.48524e-05
2.09911e-05
2.42664e-05
2.28214e-05
2.11783e-05
2.02165e-05
2.02149e-05
2.0444e-05
2.03937e-05
1.96307e-05
1.79531e-05
1.59507e-05
1.09906e-05
5.98408e-06
1.22001e-06
1.9629e-08
4.89129e-09
3.08037e-07
1.75958e-06
6.86548e-06
1.45007e-05
2.01414e-05
2.24808e-05
2.04221e-05
1.83564e-05
1.69496e-05
1.68658e-05
1.72797e-05
1.76386e-05
1.78072e-05
1.64061e-05
1.54258e-05
1.06519e-05
6.03442e-06
1.33209e-06
2.11735e-08
3.9144e-09
2.22438e-07
1.48699e-06
6.19665e-06
1.3485e-05
1.88501e-05
2.18397e-05
1.96829e-05
1.69179e-05
1.50907e-05
1.4665e-05
1.48831e-05
1.55389e-05
1.63885e-05
1.57946e-05
1.47355e-05
1.04759e-05
6.09424e-06
1.43118e-06
2.33501e-08
3.01636e-09
1.32775e-07
1.09538e-06
4.93559e-06
1.17623e-05
1.68432e-05
2.07186e-05
1.95752e-05
1.70281e-05
1.51041e-05
1.44136e-05
1.44089e-05
1.48818e-05
1.59576e-05
1.56208e-05
1.44689e-05
1.04097e-05
6.09389e-06
1.47348e-06
2.6061e-08
2.14884e-09
7.02016e-08
6.64045e-07
3.44456e-06
9.30615e-06
1.41503e-05
1.8281e-05
1.97448e-05
1.77241e-05
1.58838e-05
1.5047e-05
1.5071e-05
1.52826e-05
1.57514e-05
1.51351e-05
1.40917e-05
1.01512e-05
5.97038e-06
1.42044e-06
2.96254e-08
1.29952e-09
3.27203e-08
3.41809e-07
1.84454e-06
6.51282e-06
1.08104e-05
1.42923e-05
1.71079e-05
1.84557e-05
1.7941e-05
1.69726e-05
1.68538e-05
1.67505e-05
1.66084e-05
1.51856e-05
1.32451e-05
9.48838e-06
5.54296e-06
1.29072e-06
3.13285e-08
5.86942e-10
1.3934e-08
1.40958e-07
8.3479e-07
3.49219e-06
7.4263e-06
1.05814e-05
1.30316e-05
1.47233e-05
1.60846e-05
1.64521e-05
1.64072e-05
1.6e-05
1.50678e-05
1.35896e-05
1.16703e-05
8.3889e-06
4.83467e-06
1.08722e-06
3.20084e-08
1.98576e-10
6.93604e-09
5.81672e-08
2.99289e-07
1.27412e-06
3.47343e-06
6.04269e-06
8.39064e-06
1.01537e-05
1.14679e-05
1.22898e-05
1.24721e-05
1.26568e-05
1.20378e-05
1.0848e-05
8.94467e-06
6.38444e-06
3.69556e-06
7.85385e-07
3.08493e-08
1.5685e-10
4.46902e-09
2.79397e-08
1.14311e-07
3.77482e-07
1.1006e-06
2.12257e-06
3.25966e-06
4.42417e-06
5.27986e-06
6.06269e-06
6.35391e-06
6.3292e-06
6.09553e-06
5.67095e-06
4.99329e-06
4.12679e-06
2.33613e-06
4.55547e-07
2.65349e-08
4.36907e-10
6.95797e-09
2.29308e-08
5.95131e-08
1.5356e-07
2.89602e-07
6.00057e-07
7.88891e-07
1.15093e-06
1.32515e-06
1.62195e-06
1.76668e-06
1.96292e-06
2.07658e-06
2.13884e-06
2.26447e-06
1.90867e-06
1.07194e-06
1.87079e-07
2.00317e-08
1.68781e-10
3.97855e-10
1.1914e-09
2.0835e-09
4.49623e-09
6.66127e-09
1.21906e-08
1.44173e-08
1.93532e-08
2.08344e-08
2.41723e-08
2.49767e-08
2.74454e-08
2.88829e-08
3.1847e-08
3.04297e-08
2.8312e-08
2.62156e-08
2.17434e-08
1.20388e-08
)
;

boundaryField
{
    movingWall
    {
        type            nutkWallFunction;
        Cmu             0.09;
        kappa           0.41;
        E               9.8;
        value           uniform 0;
    }
    fixedWalls
    {
        type            nutkWallFunction;
        Cmu             0.09;
        kappa           0.41;
        E               9.8;
        value           uniform 0;
    }
    frontAndBack
    {
        type            empty;
    }
}


// ************************************************************************* //
