/*--------------------------------*- C++ -*----------------------------------*\
| =========                 |                                                 |
| \\      /  F ield         | OpenFOAM: The Open Source CFD Toolbox           |
|  \\    /   O peration     | Version:  5.0                                   |
|   \\  /    A nd           | Web:      www.OpenFOAM.org                      |
|    \\/     M anipulation  |                                                 |
\*---------------------------------------------------------------------------*/
FoamFile
{
    version     2.0;
    format      ascii;
    class       volScalarField;
    location    "7";
    object      omega;
}
// * * * * * * * * * * * * * * * * * * * * * * * * * * * * * * * * * * * * * //

dimensions      [0 0 -1 0 0 0 0];

internalField   nonuniform List<scalar> 
400
(
128
128
128
128
128
128
128
128
128
128
128
128
128
128
128
128
128
128
128
128
128
53.2849
76.097
83.0976
79.1315
67.5494
58.0994
48.3037
42.5619
37.2337
34.8152
33.7698
34.1233
36.8529
39.4547
44.6881
52.4813
65.7846
91.3141
128
128
51.0636
57.0555
55.3353
43.2318
34.3771
28.2251
24.6046
22.6038
21.5471
21.1143
21.0172
21.6573
22.9407
25.4266
29.931
38.14
53.0122
83.6145
128
128
46.627
45.4297
37.6837
26.9579
21.8925
18.0268
16.1046
14.3862
13.5627
13.0602
12.9103
13.125
14.1623
15.9442
19.4237
26.1637
39.6349
72.5354
128
128
41.709
36.5675
26.9939
19.0737
15.4574
12.3841
10.8865
9.55619
8.9399
8.64782
8.58186
9.02139
9.87844
11.4908
14.4155
20.4328
32.6765
65.003
128
128
37.5242
29.9793
20.6225
14.4987
11.5637
9.07181
7.88332
6.95192
6.54722
6.38884
6.37956
6.82638
7.53143
8.79166
10.9244
15.742
26.2011
57.5951
128
128
33.8005
25.6694
16.8745
11.7623
9.20309
7.13175
6.15413
5.50005
5.22419
5.13493
5.25569
5.66134
6.36625
7.50827
9.27998
13.4771
23.137
53.165
128
128
31.9159
22.4981
14.5213
10.1239
7.73927
5.96073
5.11852
4.6291
4.42051
4.36114
4.51268
4.85292
5.47828
6.54399
8.07163
11.3383
19.9382
48.6469
128
128
29.5893
20.6497
13.4027
9.29952
6.94138
5.29143
4.49798
4.10143
3.94746
3.91504
4.0744
4.39019
4.95192
5.94317
7.49848
10.3257
18.4598
46.1811
128
128
29.789
19.2574
12.7019
8.85702
6.43744
4.86662
4.12463
3.77287
3.64436
3.65352
3.79431
4.06561
4.57036
5.38672
6.99021
9.31583
16.9552
43.4732
128
128
31.7091
18.8559
12.7406
8.91312
6.42242
4.78848
3.96037
3.58149
3.45773
3.48687
3.61187
3.84783
4.36241
5.10591
6.74196
8.86099
16.3064
41.7698
128
128
36.0831
19.2138
12.9882
9.1619
6.57748
4.89161
4.00244
3.58335
3.42121
3.41897
3.51116
3.73999
4.24404
4.97169
6.52112
8.63182
15.9876
40.1584
128
128
44.018
20.4872
13.5695
9.73191
6.99841
5.19277
4.18633
3.67725
3.47199
3.45692
3.51853
3.7157
4.20454
4.94152
6.45317
8.56492
15.9062
39.4525
128
128
53.7853
23.6833
14.7594
10.6315
7.72095
5.77828
4.62364
3.97753
3.67586
3.63956
3.70101
3.89678
4.39809
5.2058
6.57186
8.76675
16.2732
39.6561
128
128
63.9248
28.4302
17.0292
12.1454
9.11588
6.99042
5.60908
4.7152
4.23302
4.13948
4.21001
4.42596
4.95068
5.74535
7.05232
9.45493
17.2352
40.9218
128
128
73.257
36.7286
20.6369
14.2665
10.744
8.46485
7.01209
6.10292
5.46903
5.24863
5.30267
5.48804
5.94898
6.6602
7.97617
10.66
18.7963
43.0606
128
128
70.9868
43.6635
27.9219
18.9543
13.9207
10.9653
9.13543
7.98194
7.28184
6.89215
6.92056
7.07543
7.49736
8.23709
9.77381
12.999
21.9954
48.1456
128
128
59.8443
43.4914
32.9843
25.6027
20.3542
16.3663
13.6879
11.8585
10.8023
10.0653
9.77319
9.84318
10.2375
11.2121
13.5594
18.0296
28.9466
59.0178
128
128
45.1172
42.6223
37.2589
32.2907
28.6972
25.5274
23.6953
22.1982
21.7125
21.847
22.4383
23.6377
26.2039
28.8627
34.5075
41.3713
56.5097
89.9018
128
128
128
128
128
128
128
128
128
128
128
128
128
128
128
128
128
128
128
128
128
)
;

boundaryField
{
    movingWall
    {
        Cmu             0.09;
        kappa           0.41;
        E               9.8;
        beta1           0.075;
        blended         false;
        type            omegaWallFunction;
        value           nonuniform List<scalar> 
20
(
128
128
128
128
128
128
128
128
128
128
128
128
128
128
128
128
128
128
128
128
)
;
    }
    fixedWalls
    {
        Cmu             0.09;
        kappa           0.41;
        E               9.8;
        beta1           0.075;
        blended         false;
        type            omegaWallFunction;
        value           nonuniform List<scalar> 
60
(
128
128
128
128
128
128
128
128
128
128
128
128
128
128
128
128
128
128
128
128
128
128
128
128
128
128
128
128
128
128
128
128
128
128
128
128
128
128
128
128
128
128
128
128
128
128
128
128
128
128
128
128
128
128
128
128
128
128
128
128
)
;
    }
    frontAndBack
    {
        type            empty;
    }
}


// ************************************************************************* //
