/*--------------------------------*- C++ -*----------------------------------*\
| =========                 |                                                 |
| \\      /  F ield         | OpenFOAM: The Open Source CFD Toolbox           |
|  \\    /   O peration     | Version:  5.0                                   |
|   \\  /    A nd           | Web:      www.OpenFOAM.org                      |
|    \\/     M anipulation  |                                                 |
\*---------------------------------------------------------------------------*/
FoamFile
{
    version     2.0;
    format      ascii;
    class       volScalarField;
    location    "7";
    object      p;
}
// * * * * * * * * * * * * * * * * * * * * * * * * * * * * * * * * * * * * * //

dimensions      [0 2 -2 0 0 0 0];

internalField   nonuniform List<scalar> 
400
(
4.84447e-08
-8.74622e-05
-0.000241043
-0.000163197
-0.000752566
-0.0023083
-0.00429799
-0.00615936
-0.00767932
-0.00872901
-0.00927224
-0.00925974
-0.0086439
-0.00725236
-0.00496146
-0.00173931
0.00228975
0.00657666
0.00968471
0.0109479
3.12594e-05
-3.68429e-05
-0.000202577
-0.000760311
-0.00189644
-0.00358107
-0.00537739
-0.00711268
-0.00851124
-0.0094868
-0.00999227
-0.0100042
-0.00947802
-0.00830861
-0.0063671
-0.00359757
-1.46166e-05
0.00406602
0.00760539
0.00960081
0.000293378
-3.95388e-05
-0.00073986
-0.00195239
-0.003639
-0.00545977
-0.0072454
-0.00886964
-0.0100689
-0.0108598
-0.0112328
-0.0111809
-0.0106591
-0.00965661
-0.00811635
-0.00597342
-0.00315611
0.000315537
0.00384503
0.00622675
0.000188522
-0.000464328
-0.0017714
-0.00362675
-0.00565979
-0.00756042
-0.00917487
-0.0103955
-0.0112745
-0.0118372
-0.0120757
-0.0119861
-0.0115541
-0.0107482
-0.00955128
-0.00794118
-0.00584636
-0.00315697
-0.000160131
0.00212568
-0.000595921
-0.00149966
-0.00328291
-0.00546346
-0.00752239
-0.00922857
-0.0105458
-0.01151
-0.0122076
-0.0126537
-0.0128467
-0.0127702
-0.0124088
-0.0117487
-0.0107875
-0.00953304
-0.00799244
-0.00599936
-0.00381545
-0.0017384
-0.00204985
-0.0030501
-0.00498675
-0.00713572
-0.00901195
-0.0104464
-0.0115211
-0.0123299
-0.0129299
-0.0133228
-0.0135074
-0.0134646
-0.0131825
-0.0126513
-0.0118739
-0.0108687
-0.00971752
-0.00823716
-0.00670141
-0.00498038
-0.00376056
-0.00473756
-0.00656616
-0.00852012
-0.0101438
-0.011334
-0.0122491
-0.0129594
-0.0134995
-0.0138648
-0.0140518
-0.0140429
-0.0138294
-0.013407
-0.012782
-0.011954
-0.0110774
-0.00994346
-0.00889678
-0.0075094
-0.00533004
-0.00620949
-0.00783203
-0.0095693
-0.0109632
-0.0119742
-0.0127866
-0.0134336
-0.013935
-0.0142844
-0.0144764
-0.0144959
-0.0143356
-0.0139948
-0.0134884
-0.0127817
-0.0121053
-0.0111731
-0.0104683
-0.00937278
-0.00648766
-0.00727375
-0.00871023
-0.0102755
-0.0115073
-0.0124036
-0.0131527
-0.0137602
-0.0142376
-0.0145776
-0.0147733
-0.0148124
-0.0146888
-0.0143992
-0.0139795
-0.0133328
-0.0128232
-0.0119455
-0.0115471
-0.0106385
-0.00715846
-0.00786552
-0.0091766
-0.0106421
-0.0117799
-0.0126231
-0.0133451
-0.0139347
-0.0144025
-0.01474
-0.0149383
-0.014987
-0.0148828
-0.0146137
-0.0142536
-0.0135978
-0.0132611
-0.0122734
-0.0121999
-0.0113501
-0.00731689
-0.00798813
-0.00924383
-0.0106642
-0.0117882
-0.0126425
-0.013363
-0.0139545
-0.0144265
-0.0147684
-0.0149686
-0.0150164
-0.0149126
-0.014641
-0.0142895
-0.0135986
-0.0133746
-0.0121927
-0.0124625
-0.0114906
-0.00698848
-0.00767664
-0.00891824
-0.0103664
-0.0115321
-0.0124365
-0.0131875
-0.0138047
-0.014297
-0.0146519
-0.0148558
-0.0148954
-0.0147733
-0.0144818
-0.0140735
-0.0133862
-0.0130606
-0.0117749
-0.0122583
-0.0110475
-0.00627184
-0.00702258
-0.00827512
-0.00975064
-0.0110117
-0.0119989
-0.0128092
-0.0134748
-0.0140041
-0.0143815
-0.0145912
-0.0146159
-0.0144598
-0.0141181
-0.0136203
-0.0129041
-0.0123479
-0.0110345
-0.0115542
-0.0100175
-0.00541868
-0.00620232
-0.00741084
-0.008819
-0.0101894
-0.0112945
-0.0122026
-0.012948
-0.0135362
-0.0139473
-0.014166
-0.0141719
-0.0139681
-0.0135501
-0.0129413
-0.012128
-0.0112923
-0.00995509
-0.0103685
-0.00844361
-0.00467236
-0.00537483
-0.00641668
-0.00765048
-0.00903574
-0.0102862
-0.0113469
-0.0122149
-0.0128909
-0.0133532
-0.013588
-0.0135755
-0.0133134
-0.0127957
-0.0120447
-0.0110594
-0.0099414
-0.0085434
-0.00877459
-0.00638779
-0.00441202
-0.00473292
-0.00533047
-0.00626114
-0.00755491
-0.00894792
-0.0102102
-0.011256
-0.0120647
-0.0126109
-0.0128809
-0.0128521
-0.0125301
-0.011894
-0.0109675
-0.00975857
-0.00838366
-0.00687266
-0.00681704
-0.00387825
-0.0044959
-0.00433166
-0.00419232
-0.0046915
-0.00583027
-0.00730908
-0.00878667
-0.0100564
-0.0110508
-0.0117292
-0.0120797
-0.012073
-0.0116955
-0.0109357
-0.00981863
-0.00835942
-0.00670259
-0.00501789
-0.00450333
-0.000764407
-0.00432952
-0.00372254
-0.00293761
-0.00301681
-0.0040107
-0.00553958
-0.00719303
-0.00865847
-0.00984828
-0.0106814
-0.011132
-0.0111633
-0.0107742
-0.00994488
-0.00868562
-0.00700479
-0.00506236
-0.00300506
-0.00140944
0.00439829
-0.00377206
-0.00288962
-0.00177694
-0.00164947
-0.00254274
-0.00408656
-0.00585822
-0.00750826
-0.00886658
-0.00985004
-0.0104054
-0.0105149
-0.0101473
-0.0092851
-0.00793534
-0.00607761
-0.00370833
-0.000557527
0.00473279
0.017179
-0.00519018
-0.0020786
-0.000733153
-0.000742367
-0.0015947
-0.00313868
-0.00496987
-0.00678731
-0.00828488
-0.00938454
-0.0100217
-0.0101985
-0.00988382
-0.00907001
-0.00768302
-0.00561595
-0.00207863
0.00487304
0.0188078
0.0412441
)
;

boundaryField
{
    movingWall
    {
        type            zeroGradient;
    }
    fixedWalls
    {
        type            zeroGradient;
    }
    frontAndBack
    {
        type            empty;
    }
}


// ************************************************************************* //
