/*--------------------------------*- C++ -*----------------------------------*\
| =========                 |                                                 |
| \\      /  F ield         | OpenFOAM: The Open Source CFD Toolbox           |
|  \\    /   O peration     | Version:  5.0                                   |
|   \\  /    A nd           | Web:      www.OpenFOAM.org                      |
|    \\/     M anipulation  |                                                 |
\*---------------------------------------------------------------------------*/
FoamFile
{
    version     2.0;
    format      ascii;
    class       surfaceScalarField;
    location    "7";
    object      phi;
}
// * * * * * * * * * * * * * * * * * * * * * * * * * * * * * * * * * * * * * //

dimensions      [0 3 -1 0 0 0 0];

internalField   nonuniform List<scalar> 
760
(
2.49584e-07
-2.49588e-07
1.37544e-07
1.12039e-07
-5.025e-07
6.40044e-07
-1.90901e-06
1.40651e-06
-3.63976e-06
1.73075e-06
-5.1347e-06
1.49494e-06
-6.39599e-06
1.26128e-06
-7.31752e-06
9.21534e-07
-8.03079e-06
7.13268e-07
-8.50401e-06
4.73224e-07
-8.80835e-06
3.04342e-07
-8.90559e-06
9.72323e-08
-8.83788e-06
-6.77078e-08
-8.55148e-06
-2.86397e-07
-8.05168e-06
-4.99802e-07
-7.18029e-06
-8.7139e-07
-5.87256e-06
-1.30773e-06
-3.95697e-06
-1.91559e-06
-1.64168e-06
-2.31529e-06
-1.64168e-06
-2.54303e-07
4.71509e-09
-1.16923e-06
1.02696e-06
-2.78968e-06
2.26049e-06
-4.43885e-06
3.05569e-06
-5.59989e-06
2.89178e-06
-6.63138e-06
2.52643e-06
-7.39691e-06
2.02681e-06
-8.05129e-06
1.57592e-06
-8.49777e-06
1.15974e-06
-8.78099e-06
7.56448e-07
-8.88718e-06
4.10536e-07
-8.82312e-06
3.31649e-08
-8.64055e-06
-2.50279e-07
-8.33157e-06
-5.95372e-07
-7.82525e-06
-1.00612e-06
-7.10957e-06
-1.58707e-06
-6.02946e-06
-2.38784e-06
-4.46412e-06
-3.48093e-06
-2.30122e-06
-4.47819e-06
-3.9429e-06
-9.56061e-07
9.60776e-07
-2.43393e-06
2.50483e-06
-3.90801e-06
3.73458e-06
-4.9767e-06
4.12438e-06
-5.78239e-06
3.69747e-06
-6.39181e-06
3.13585e-06
-6.74855e-06
2.38356e-06
-6.95698e-06
1.78434e-06
-6.95898e-06
1.16174e-06
-6.92358e-06
7.21048e-07
-6.82564e-06
3.12603e-07
-6.76242e-06
-3.00533e-08
-6.56921e-06
-4.43497e-07
-6.30163e-06
-8.62951e-07
-5.91621e-06
-1.39154e-06
-5.42689e-06
-2.0764e-06
-4.77776e-06
-3.03697e-06
-3.79902e-06
-4.45967e-06
-2.23618e-06
-6.04102e-06
-6.17908e-06
-1.29388e-06
2.25466e-06
-2.76729e-06
3.97824e-06
-3.90707e-06
4.87436e-06
-4.61923e-06
4.83653e-06
-5.03579e-06
4.11403e-06
-5.15863e-06
3.2587e-06
-5.15293e-06
2.37786e-06
-5.11856e-06
1.74997e-06
-5.12614e-06
1.16932e-06
-5.12701e-06
7.21923e-07
-5.0967e-06
2.82288e-07
-4.99443e-06
-1.32325e-07
-4.85035e-06
-5.87575e-07
-4.61835e-06
-1.09495e-06
-4.29575e-06
-1.71413e-06
-3.89304e-06
-2.47911e-06
-3.42829e-06
-3.50172e-06
-2.7942e-06
-5.09376e-06
-1.7445e-06
-7.09073e-06
-7.92358e-06
-1.30125e-06
3.55591e-06
-2.50744e-06
5.18443e-06
-3.29045e-06
5.65737e-06
-3.71154e-06
5.25763e-06
-3.8298e-06
4.23229e-06
-3.82934e-06
3.25824e-06
-3.84751e-06
2.39603e-06
-3.87916e-06
1.78161e-06
-3.92446e-06
1.21463e-06
-3.94869e-06
7.46152e-07
-3.93505e-06
2.68639e-07
-3.86156e-06
-2.05812e-07
-3.72123e-06
-7.27903e-07
-3.50583e-06
-1.31035e-06
-3.21611e-06
-2.00385e-06
-2.85079e-06
-2.84442e-06
-2.4844e-06
-3.86811e-06
-2.11475e-06
-5.46342e-06
-1.36768e-06
-7.8378e-06
-9.29125e-06
-1.07399e-06
4.62991e-06
-1.9372e-06
6.04763e-06
-2.4917e-06
6.21187e-06
-2.74177e-06
5.5077e-06
-2.80121e-06
4.29173e-06
-2.8131e-06
3.27012e-06
-2.87183e-06
2.45476e-06
-2.93617e-06
1.84595e-06
-2.99936e-06
1.27782e-06
-3.03196e-06
7.78749e-07
-3.0273e-06
2.63985e-07
-2.96898e-06
-2.64135e-07
-2.8516e-06
-8.45279e-07
-2.66656e-06
-1.4954e-06
-2.41761e-06
-2.25281e-06
-2.08589e-06
-3.17614e-06
-1.72073e-06
-4.23327e-06
-1.37527e-06
-5.80887e-06
-1.03419e-06
-8.17888e-06
-1.03254e-05
-7.6576e-07
5.39567e-06
-1.35798e-06
6.63985e-06
-1.74268e-06
6.59658e-06
-1.89493e-06
5.65995e-06
-1.9513e-06
4.34809e-06
-2.00412e-06
3.32295e-06
-2.08579e-06
2.53643e-06
-2.15839e-06
1.91856e-06
-2.22314e-06
1.34257e-06
-2.25707e-06
8.12681e-07
-2.2579e-06
2.64811e-07
-2.21563e-06
-3.06398e-07
-2.12675e-06
-9.34161e-07
-1.9835e-06
-1.63865e-06
-1.79086e-06
-2.44545e-06
-1.54081e-06
-3.42619e-06
-1.25494e-06
-4.51913e-06
-1.0106e-06
-6.05321e-06
-7.68292e-07
-8.42119e-06
-1.10937e-05
-4.40805e-07
5.83647e-06
-8.20943e-07
7.01999e-06
-1.07416e-06
6.84979e-06
-1.18436e-06
5.77014e-06
-1.25098e-06
4.41471e-06
-1.32336e-06
3.39533e-06
-1.4088e-06
2.62187e-06
-1.48041e-06
1.99018e-06
-1.53983e-06
1.40198e-06
-1.57175e-06
8.44607e-07
-1.57662e-06
2.69676e-07
-1.54931e-06
-3.33702e-07
-1.48815e-06
-9.95326e-07
-1.38451e-06
-1.74228e-06
-1.24286e-06
-2.58711e-06
-1.06174e-06
-3.60731e-06
-8.27523e-07
-4.75335e-06
-6.45079e-07
-6.23566e-06
-5.65347e-07
-8.50092e-06
-1.16591e-05
-1.78443e-07
6.01491e-06
-3.75481e-07
7.21703e-06
-5.06056e-07
6.98037e-06
-5.847e-07
5.84879e-06
-6.50491e-07
4.48051e-06
-7.24143e-07
3.46898e-06
-8.0314e-07
2.70086e-06
-8.68561e-07
2.0556e-06
-9.2078e-07
1.4542e-06
-9.50283e-07
8.7411e-07
-9.59202e-07
2.78594e-07
-9.46202e-07
-3.46702e-07
-9.13892e-07
-1.02764e-06
-8.54933e-07
-1.80124e-06
-7.74788e-07
-2.66725e-06
-6.73124e-07
-3.70897e-06
-5.53155e-07
-4.87332e-06
-4.50975e-07
-6.33784e-06
-4.09327e-07
-8.54257e-06
-1.20684e-05
8.67202e-08
5.92819e-06
3.93783e-08
7.26437e-06
-5.44147e-09
7.02519e-06
-3.2442e-08
5.87579e-06
-8.99424e-08
4.53801e-06
-1.67782e-07
3.54682e-06
-2.36051e-07
2.76913e-06
-2.92088e-07
2.11163e-06
-3.36805e-07
1.49891e-06
-3.65075e-07
9.0238e-07
-3.79538e-07
2.93058e-07
-3.79863e-07
-3.46377e-07
-3.72787e-07
-1.03471e-06
-3.59746e-07
-1.81428e-06
-3.23928e-07
-2.70307e-06
-3.00373e-07
-3.73253e-06
-2.39791e-07
-4.9339e-06
-2.24575e-07
-6.35306e-06
-3.11934e-07
-8.45521e-06
-1.23803e-05
3.25263e-07
5.60293e-06
4.60862e-07
7.12877e-06
5.35504e-07
6.95054e-06
4.80873e-07
5.93042e-06
4.22935e-07
4.59594e-06
3.67835e-07
3.60192e-06
3.18731e-07
2.81824e-06
2.7681e-07
2.15356e-06
2.41135e-07
1.53459e-06
2.13219e-07
9.30296e-07
1.90822e-07
3.15454e-07
1.71886e-07
-3.27441e-07
1.56569e-07
-1.01939e-06
1.11665e-07
-1.76938e-06
1.10398e-07
-2.7018e-06
-6.70086e-09
-3.61543e-06
4.02669e-08
-4.98087e-06
-1.00623e-07
-6.21217e-06
-2.17003e-07
-8.33883e-06
-1.25973e-05
5.46093e-07
5.05684e-06
8.71739e-07
6.80312e-06
1.05158e-06
6.7707e-06
1.02167e-06
5.96033e-06
9.67939e-07
4.64968e-06
9.2486e-07
3.645e-06
8.94591e-07
2.84851e-06
8.70924e-07
2.17722e-06
8.45686e-07
1.55983e-06
8.19468e-07
9.56515e-07
7.88114e-07
3.46808e-07
7.48978e-07
-2.88305e-07
6.94076e-07
-9.64492e-07
6.32788e-07
-1.70809e-06
5.26335e-07
-2.59535e-06
4.23982e-07
-3.51308e-06
2.87688e-07
-4.84458e-06
4.27459e-08
-5.96722e-06
-1.41573e-07
-8.15451e-06
-1.27389e-05
8.09339e-07
4.2475e-06
1.24771e-06
6.36475e-06
1.53577e-06
6.48264e-06
1.58549e-06
5.91061e-06
1.5378e-06
4.69736e-06
1.51732e-06
3.66549e-06
1.51406e-06
2.85177e-06
1.51464e-06
2.17663e-06
1.50666e-06
1.56781e-06
1.48558e-06
9.77594e-07
1.4436e-06
3.88786e-07
1.37838e-06
-2.23085e-07
1.28583e-06
-8.71941e-07
1.17187e-06
-1.59414e-06
9.90971e-07
-2.41444e-06
8.24099e-07
-3.3462e-06
5.44881e-07
-4.56536e-06
2.25086e-07
-5.64743e-06
-3.68537e-09
-7.92574e-06
-1.27426e-05
1.01505e-06
3.23245e-06
1.65018e-06
5.72962e-06
2.03015e-06
6.10267e-06
2.19832e-06
5.74244e-06
2.17497e-06
4.72071e-06
2.17377e-06
3.66669e-06
2.19478e-06
2.83076e-06
2.22115e-06
2.15027e-06
2.2338e-06
1.55516e-06
2.22198e-06
9.8941e-07
2.17436e-06
4.36404e-07
2.08709e-06
-1.35809e-07
1.95521e-06
-7.40059e-07
1.78317e-06
-1.4221e-06
1.54648e-06
-2.17775e-06
1.29339e-06
-3.09312e-06
8.9877e-07
-4.17074e-06
4.64972e-07
-5.21363e-06
1.06426e-07
-7.56719e-06
-1.26362e-05
1.23024e-06
2.00221e-06
1.923e-06
5.03687e-06
2.40767e-06
5.61799e-06
2.75844e-06
5.39167e-06
2.88586e-06
4.59329e-06
2.9357e-06
3.61685e-06
2.97809e-06
2.78837e-06
3.02365e-06
2.1047e-06
3.05157e-06
1.52724e-06
3.04665e-06
9.94335e-07
2.99609e-06
4.86962e-07
2.88838e-06
-2.81044e-08
2.71861e-06
-5.70286e-07
2.4921e-06
-1.19559e-06
2.18963e-06
-1.87528e-06
1.82581e-06
-2.7293e-06
1.29166e-06
-3.63659e-06
6.86535e-07
-4.60851e-06
2.55415e-07
-7.13607e-06
-1.23808e-05
1.18835e-06
8.13852e-07
2.05406e-06
4.17116e-06
2.69343e-06
4.97862e-06
3.24546e-06
4.83964e-06
3.576e-06
4.26276e-06
3.75227e-06
3.44057e-06
3.86011e-06
2.68053e-06
3.93817e-06
2.02665e-06
3.98265e-06
1.48275e-06
3.98524e-06
9.91743e-07
3.92465e-06
5.47557e-07
3.81487e-06
8.16708e-08
3.60902e-06
-3.64433e-07
3.33182e-06
-9.18395e-07
2.94661e-06
-1.49007e-06
2.44697e-06
-2.22966e-06
1.77697e-06
-2.96659e-06
1.01432e-06
-3.84586e-06
4.79779e-07
-6.60153e-06
-1.1901e-05
6.12457e-07
2.01395e-07
1.72016e-06
3.06346e-06
2.70518e-06
3.99359e-06
3.53653e-06
4.00829e-06
4.15786e-06
3.64143e-06
4.56939e-06
3.02904e-06
4.83523e-06
2.4147e-06
5.00458e-06
1.8573e-06
5.09426e-06
1.39307e-06
5.12669e-06
9.59318e-07
5.07481e-06
5.99433e-07
4.93639e-06
2.2009e-07
4.68999e-06
-1.18027e-07
4.34704e-06
-5.75445e-07
3.84573e-06
-9.88764e-07
3.18588e-06
-1.56981e-06
2.30824e-06
-2.08894e-06
1.38383e-06
-2.92146e-06
8.08987e-07
-6.02669e-06
-1.1092e-05
-2.21603e-07
4.22997e-07
1.0386e-06
1.80326e-06
2.23531e-06
2.79688e-06
3.39081e-06
2.85279e-06
4.34261e-06
2.68963e-06
5.07855e-06
2.2931e-06
5.59774e-06
1.8955e-06
5.98056e-06
1.47448e-06
6.19228e-06
1.18135e-06
6.30612e-06
8.45485e-07
6.26952e-06
6.3603e-07
6.15231e-06
3.37302e-07
5.87613e-06
1.5815e-07
5.46171e-06
-1.61023e-07
4.83888e-06
-3.65933e-07
4.03657e-06
-7.67506e-07
2.95112e-06
-1.00348e-06
2.04154e-06
-2.01187e-06
1.35942e-06
-5.34457e-06
-9.73258e-06
-1.20582e-06
1.62882e-06
-2.94744e-07
8.92181e-07
1.22066e-06
1.28148e-06
2.68732e-06
1.38614e-06
3.95481e-06
1.42214e-06
4.98425e-06
1.26367e-06
5.75533e-06
1.12442e-06
6.33055e-06
8.99252e-07
6.71962e-06
7.92281e-07
6.94874e-06
6.1637e-07
7.03559e-06
5.49173e-07
6.97004e-06
4.02858e-07
6.77024e-06
3.57952e-07
6.39637e-06
2.12841e-07
5.87245e-06
1.57994e-07
5.1663e-06
-6.13617e-08
4.43437e-06
-2.71555e-07
3.79629e-06
-1.37379e-06
2.58465e-06
-4.13293e-06
-7.14793e-06
1.62882e-06
2.521e-06
3.80248e-06
5.18862e-06
6.61075e-06
7.87442e-06
8.99884e-06
9.89809e-06
1.06904e-05
1.13067e-05
1.18559e-05
1.22588e-05
1.26167e-05
1.28296e-05
1.29876e-05
1.29262e-05
1.26546e-05
1.12809e-05
7.14793e-06
)
;

boundaryField
{
    movingWall
    {
        type            calculated;
        value           uniform 0;
    }
    fixedWalls
    {
        type            calculated;
        value           uniform 0;
    }
    frontAndBack
    {
        type            empty;
        value           nonuniform 0();
    }
}


// ************************************************************************* //
