/*--------------------------------*- C++ -*----------------------------------*\
| =========                 |                                                 |
| \\      /  F ield         | OpenFOAM: The Open Source CFD Toolbox           |
|  \\    /   O peration     | Version:  5.0                                   |
|   \\  /    A nd           | Web:      www.OpenFOAM.org                      |
|    \\/     M anipulation  |                                                 |
\*---------------------------------------------------------------------------*/
FoamFile
{
    version     2.0;
    format      ascii;
    class       volVectorField;
    location    "7";
    object      U;
}
// * * * * * * * * * * * * * * * * * * * * * * * * * * * * * * * * * * * * * //

dimensions      [0 1 -1 0 0 0 0];

internalField   nonuniform List<vector> 
400
(
(0.00234499 -0.00355087 0)
(0.00737508 -0.00179985 0)
(-0.00273521 0.00130529 0)
(-0.0144974 0.00860984 0)
(-0.0588437 0.0187856 0)
(-0.0922305 0.0146532 0)
(-0.119765 0.0140422 0)
(-0.140127 0.0112349 0)
(-0.155595 0.00958049 0)
(-0.166814 0.00734076 0)
(-0.174408 0.00569262 0)
(-0.178287 0.00386846 0)
(-0.179566 0.00219971 0)
(-0.176305 -0.00111561 0)
(-0.167224 -0.00345972 0)
(-0.151906 -0.00870498 0)
(-0.128008 -0.0134202 0)
(-0.0953698 -0.0195275 0)
(-0.0564295 -0.0192662 0)
(-0.0132744 -0.00529834 0)
(-0.000413455 -0.00736142 0)
(-0.00943655 0.00673782 0)
(-0.0349721 0.0269187 0)
(-0.0739561 0.0481101 0)
(-0.104555 0.0464266 0)
(-0.125527 0.0409537 0)
(-0.142667 0.0340636 0)
(-0.156757 0.0241855 0)
(-0.166876 0.0178783 0)
(-0.174029 0.0105365 0)
(-0.177813 0.00549834 0)
(-0.179046 -0.000666004 0)
(-0.176816 -0.0056656 0)
(-0.172313 -0.0123741 0)
(-0.163171 -0.0196919 0)
(-0.149685 -0.0308081 0)
(-0.129378 -0.0447655 0)
(-0.101911 -0.0636087 0)
(-0.0679623 -0.0772421 0)
(-0.0199602 -0.0559974 0)
(-0.00678017 0.00784571 0)
(-0.030804 0.0368858 0)
(-0.0642996 0.0620287 0)
(-0.0930193 0.0719449 0)
(-0.111028 0.0654029 0)
(-0.123425 0.0562866 0)
(-0.134037 0.042765 0)
(-0.138931 0.0338944 0)
(-0.139034 0.0239914 0)
(-0.139459 0.0160736 0)
(-0.137581 0.00829396 0)
(-0.136555 0.00126478 0)
(-0.13422 -0.00606965 0)
(-0.130131 -0.0138721 0)
(-0.123867 -0.0239941 0)
(-0.114867 -0.0377977 0)
(-0.101812 -0.0581118 0)
(-0.0825997 -0.085236 0)
(-0.0603768 -0.112529 0)
(-0.0220544 -0.111091 0)
(-0.0105778 0.0328497 0)
(-0.0413111 0.065889 0)
(-0.0711932 0.0867595 0)
(-0.089594 0.0886205 0)
(-0.0996433 0.0774602 0)
(-0.104467 0.0637989 0)
(-0.103724 0.0483809 0)
(-0.101409 0.0355936 0)
(-0.102686 0.023455 0)
(-0.102477 0.0143595 0)
(-0.102611 0.00553711 0)
(-0.101409 -0.00202202 0)
(-0.0990482 -0.0103165 0)
(-0.0953948 -0.0191673 0)
(-0.0900485 -0.0301673 0)
(-0.0834477 -0.0443747 0)
(-0.0743897 -0.0651505 0)
(-0.0590922 -0.0978864 0)
(-0.0461877 -0.135626 0)
(-0.0170952 -0.14492 0)
(-0.0103509 0.0570829 0)
(-0.0423343 0.0913857 0)
(-0.0621177 0.104198 0)
(-0.0745218 0.100156 0)
(-0.077325 0.0837517 0)
(-0.0768161 0.0662796 0)
(-0.0756237 0.0487426 0)
(-0.0768247 0.0359405 0)
(-0.0780185 0.0241999 0)
(-0.0789503 0.0148352 0)
(-0.0792304 0.00541693 0)
(-0.0784033 -0.00363738 0)
(-0.0762563 -0.013646 0)
(-0.0726374 -0.0245862 0)
(-0.0674946 -0.0374859 0)
(-0.0612888 -0.0529133 0)
(-0.0550839 -0.0726336 0)
(-0.0412908 -0.104781 0)
(-0.0403953 -0.152836 0)
(-0.00758278 -0.176723 0)
(-0.00906843 0.0805753 0)
(-0.0348161 0.11144 0)
(-0.0472415 0.117811 0)
(-0.0566502 0.10755 0)
(-0.0554076 0.0862017 0)
(-0.0552574 0.066028 0)
(-0.0558993 0.0489912 0)
(-0.0580886 0.0366238 0)
(-0.0593123 0.02514 0)
(-0.0606415 0.0153361 0)
(-0.0608872 0.00530958 0)
(-0.0603586 -0.00481369 0)
(-0.0585253 -0.0159649 0)
(-0.0554627 -0.0284364 0)
(-0.050855 -0.0430313 0)
(-0.0447283 -0.0605102 0)
(-0.0408477 -0.0807274 0)
(-0.0253591 -0.111722 0)
(-0.0311463 -0.159183 0)
(-0.00439332 -0.196537 0)
(-0.00677869 0.0997807 0)
(-0.02504 0.125806 0)
(-0.0333567 0.127341 0)
(-0.0399168 0.111544 0)
(-0.0373468 0.0865768 0)
(-0.0388787 0.0661528 0)
(-0.0403509 0.0500623 0)
(-0.0425748 0.0377239 0)
(-0.0438232 0.026237 0)
(-0.0451097 0.0158796 0)
(-0.0453767 0.00520313 0)
(-0.0450369 -0.00586558 0)
(-0.0436312 -0.0180477 0)
(-0.0413161 -0.0316952 0)
(-0.0379444 -0.0474492 0)
(-0.0320377 -0.0665689 0)
(-0.0316358 -0.0877305 0)
(-0.015954 -0.118969 0)
(-0.0270397 -0.166792 0)
(0.00112393 -0.215312 0)
(-0.00346652 0.112006 0)
(-0.0151475 0.136308 0)
(-0.0207182 0.134555 0)
(-0.0251279 0.114498 0)
(-0.0228911 0.088089 0)
(-0.0254801 0.067361 0)
(-0.0270255 0.0516551 0)
(-0.0290575 0.0390821 0)
(-0.030255 0.0274242 0)
(-0.0313614 0.0165206 0)
(-0.031656 0.00527167 0)
(-0.0314699 -0.00654156 0)
(-0.0304899 -0.0195291 0)
(-0.0288128 -0.034128 0)
(-0.0269884 -0.0506549 0)
(-0.0208381 -0.0708494 0)
(-0.0237367 -0.0925452 0)
(-0.0067639 -0.122445 0)
(-0.0215589 -0.168344 0)
(0.00276182 -0.226705 0)
(-0.000559852 0.119671 0)
(-0.00723186 0.142674 0)
(-0.00969237 0.138314 0)
(-0.0125884 0.116111 0)
(-0.0108854 0.0884313 0)
(-0.0138343 0.0683244 0)
(-0.0151204 0.053061 0)
(-0.0168833 0.0403418 0)
(-0.0179736 0.0284851 0)
(-0.0188874 0.017118 0)
(-0.0192106 0.00541364 0)
(-0.0191899 -0.0069296 0)
(-0.0186753 -0.0204519 0)
(-0.0174554 -0.035771 0)
(-0.0176379 -0.0529307 0)
(-0.0112991 -0.0737901 0)
(-0.0179979 -0.0969694 0)
(-0.00122292 -0.126785 0)
(-0.0195364 -0.170927 0)
(0.00632842 -0.238355 0)
(0.00266671 0.120393 0)
(0.000431926 0.145993 0)
(0.000560066 0.140811 0)
(-0.00101572 0.117491 0)
(-0.000133361 0.0907187 0)
(-0.00293349 0.0704435 0)
(-0.00392568 0.0548189 0)
(-0.00543622 0.0416968 0)
(-0.00638138 0.0294917 0)
(-0.00713709 0.0176812 0)
(-0.0075102 0.00562583 0)
(-0.00765633 -0.00705992 0)
(-0.00768756 -0.0208159 0)
(-0.00664054 -0.0363776 0)
(-0.00881782 -0.0541309 0)
(-0.00226193 -0.0743988 0)
(-0.0120698 -0.0988456 0)
(0.00515658 -0.126135 0)
(-0.0168019 -0.170427 0)
(0.00735144 -0.244688 0)
(0.0057694 0.11712 0)
(0.00669809 0.145529 0)
(0.00990526 0.140543 0)
(0.00948498 0.117852 0)
(0.010098 0.0905616 0)
(0.0077074 0.0708975 0)
(0.00697194 0.0555236 0)
(0.00582398 0.0423944 0)
(0.00509096 0.0301247 0)
(0.00446403 0.018144 0)
(0.00399846 0.00593255 0)
(0.00369385 -0.00692427 0)
(0.00301928 -0.0207612 0)
(0.00368905 -0.0361281 0)
(7.9246e-05 -0.0545343 0)
(0.00561229 -0.0738828 0)
(-0.00658037 -0.100563 0)
(0.00956434 -0.126191 0)
(-0.0158963 -0.169381 0)
(0.0102501 -0.250941 0)
(0.00704471 0.108355 0)
(0.013775 0.141518 0)
(0.0189767 0.138841 0)
(0.0203446 0.119353 0)
(0.0209075 0.0932003 0)
(0.0188815 0.0729506 0)
(0.0182588 0.0569596 0)
(0.0175219 0.0434935 0)
(0.017076 0.031043 0)
(0.0166509 0.018866 0)
(0.0160947 0.00653399 0)
(0.0155829 -0.00632935 0)
(0.01422 -0.0201057 0)
(0.0141637 -0.0350603 0)
(0.00993794 -0.0531885 0)
(0.0135068 -0.0718048 0)
(0.000261004 -0.0982339 0)
(0.0151183 -0.121807 0)
(-0.0151195 -0.165607 0)
(0.0122956 -0.25355 0)
(0.0107062 0.0976186 0)
(0.0198089 0.134088 0)
(0.0277845 0.133588 0)
(0.0306121 0.119106 0)
(0.0320174 0.0919749 0)
(0.0306871 0.0721966 0)
(0.030369 0.0565208 0)
(0.0301579 0.0432677 0)
(0.0301066 0.0310954 0)
(0.0300085 0.0191753 0)
(0.0293272 0.0071761 0)
(0.0286562 -0.00531146 0)
(0.026357 -0.0185781 0)
(0.0255788 -0.0332875 0)
(0.0203936 -0.050405 0)
(0.0216316 -0.0693703 0)
(0.00772309 -0.0944626 0)
(0.0192174 -0.117508 0)
(-0.0143382 -0.160486 0)
(0.0159685 -0.254783 0)
(0.0118718 0.0761023 0)
(0.0262052 0.124036 0)
(0.0375373 0.127354 0)
(0.0414481 0.118568 0)
(0.044289 0.095335 0)
(0.0437126 0.0737088 0)
(0.0436695 0.0571639 0)
(0.0440153 0.0436296 0)
(0.0444054 0.0316025 0)
(0.044776 0.0200478 0)
(0.0439437 0.00852721 0)
(0.0432829 -0.0034455 0)
(0.0400612 -0.016051 0)
(0.038581 -0.0301939 0)
(0.0322995 -0.0461053 0)
(0.0314339 -0.0646259 0)
(0.017195 -0.087117 0)
(0.024839 -0.108528 0)
(-0.0122747 -0.154722 0)
(0.0195179 -0.253053 0)
(0.0160423 0.0575329 0)
(0.03039 0.109061 0)
(0.0445228 0.11773 0)
(0.0509665 0.111417 0)
(0.0562856 0.0935041 0)
(0.0581044 0.0723162 0)
(0.0589765 0.0554465 0)
(0.0599026 0.0419997 0)
(0.0605417 0.0305123 0)
(0.0613505 0.0197192 0)
(0.0602898 0.00922621 0)
(0.0597245 -0.00177456 0)
(0.0556511 -0.0131157 0)
(0.053527 -0.0261393 0)
(0.045978 -0.0404526 0)
(0.0430703 -0.0581173 0)
(0.0282013 -0.0780513 0)
(0.0300924 -0.0985763 0)
(-0.0100645 -0.146733 0)
(0.0252728 -0.251333 0)
(0.0128792 0.0204583 0)
(0.0339567 0.0934607 0)
(0.0493347 0.108139 0)
(0.0592437 0.105298 0)
(0.0671908 0.0919516 0)
(0.0726494 0.0730757 0)
(0.0757249 0.0559082 0)
(0.0779844 0.0418214 0)
(0.0788334 0.0303253 0)
(0.0802521 0.0200382 0)
(0.0787902 0.0106077 0)
(0.0784951 0.000838979 0)
(0.0737267 -0.0089769 0)
(0.0711444 -0.0206242 0)
(0.0622357 -0.0331258 0)
(0.0574459 -0.0490971 0)
(0.0413145 -0.0657252 0)
(0.0367496 -0.0841784 0)
(-0.00523623 -0.138364 0)
(0.0317705 -0.247731 0)
(-0.00042947 0.00918435 0)
(0.0262935 0.0679949 0)
(0.0467313 0.0892678 0)
(0.0619374 0.0900075 0)
(0.0756116 0.0813126 0)
(0.0861755 0.0672235 0)
(0.0931754 0.0531541 0)
(0.098585 0.0400779 0)
(0.100392 0.0290607 0)
(0.103061 0.0191903 0)
(0.101401 0.0107204 0)
(0.101493 0.00210806 0)
(0.095785 -0.00597418 0)
(0.092479 -0.0156313 0)
(0.0818485 -0.0252278 0)
(0.0744006 -0.0380829 0)
(0.0556787 -0.0504229 0)
(0.0434332 -0.0688322 0)
(0.00133845 -0.131266 0)
(0.0414068 -0.244177 0)
(-0.0188207 -0.00181943 0)
(0.0112771 0.0547347 0)
(0.0346994 0.0737669 0)
(0.0559526 0.0752211 0)
(0.0754891 0.0692187 0)
(0.0935149 0.0583628 0)
(0.105381 0.0473789 0)
(0.11643 0.0378567 0)
(0.120636 0.0296971 0)
(0.126123 0.0216447 0)
(0.125083 0.0151948 0)
(0.125932 0.0079466 0)
(0.119765 0.00216827 0)
(0.115804 -0.00549762 0)
(0.103158 -0.0118875 0)
(0.0933706 -0.0216075 0)
(0.0708365 -0.0303489 0)
(0.0522696 -0.0511056 0)
(0.0162176 -0.124513 0)
(0.0543231 -0.232317 0)
(-0.0256567 0.0230125 0)
(-0.0192068 0.0198548 0)
(0.00997753 0.0384089 0)
(0.0394492 0.0409272 0)
(0.0648156 0.0403803 0)
(0.0894364 0.0354263 0)
(0.106058 0.0304739 0)
(0.121398 0.0230654 0)
(0.129909 0.0193202 0)
(0.13738 0.0135527 0)
(0.139969 0.0113324 0)
(0.140911 0.00609584 0)
(0.13771 0.00455598 0)
(0.133324 -0.0003839 0)
(0.122275 -0.0019235 0)
(0.112767 -0.00850672 0)
(0.0899962 -0.0128959 0)
(0.0779016 -0.0387745 0)
(0.055787 -0.110411 0)
(0.0787429 -0.181839 0)
(0.0360372 0.0327678 0)
(0.0403651 0.0190394 0)
(0.0576198 0.0170724 0)
(0.0900202 0.0174169 0)
(0.115306 0.0193433 0)
(0.144227 0.0179142 0)
(0.166421 0.0172147 0)
(0.188711 0.0149121 0)
(0.205266 0.0138403 0)
(0.220486 0.0120503 0)
(0.231823 0.0111581 0)
(0.241484 0.00978703 0)
(0.248856 0.00904366 0)
(0.253771 0.00796903 0)
(0.258129 0.0074332 0)
(0.258146 0.00584596 0)
(0.253383 0.00472987 0)
(0.23992 -0.00244163 0)
(0.200645 -0.0146473 0)
(0.148356 -0.0345581 0)
)
;

boundaryField
{
    movingWall
    {
        type            fixedValue;
        value           uniform (1 0 0);
    }
    fixedWalls
    {
        type            noSlip;
    }
    frontAndBack
    {
        type            empty;
    }
}


// ************************************************************************* //
