/*--------------------------------*- C++ -*----------------------------------*\
| =========                 |                                                 |
| \\      /  F ield         | OpenFOAM: The Open Source CFD Toolbox           |
|  \\    /   O peration     | Version:  5.0                                   |
|   \\  /    A nd           | Web:      www.OpenFOAM.org                      |
|    \\/     M anipulation  |                                                 |
\*---------------------------------------------------------------------------*/
FoamFile
{
    version     2.0;
    format      ascii;
    class       volScalarField;
    location    "1";
    object      p;
}
// * * * * * * * * * * * * * * * * * * * * * * * * * * * * * * * * * * * * * //

dimensions      [0 2 -2 0 0 0 0];

internalField   nonuniform List<scalar> 
400
(
-1.07222e-08
7.66905e-06
2.67397e-05
5.77403e-05
0.000101675
0.000160033
0.000234735
0.000328153
0.000443107
0.000582798
0.000750544
0.00094929
0.00118004
0.00144457
0.00173817
0.00204516
0.00234395
0.00260114
0.00277966
0.00286009
-9.37722e-06
-1.97106e-06
1.62466e-05
4.60683e-05
8.84284e-05
0.000144776
0.000217011
0.000307521
0.00041921
0.000555472
0.000720034
0.000916578
0.00114797
0.00141607
0.00171659
0.0020386
0.00235747
0.00263516
0.00282709
0.00291236
-3.46937e-05
-2.77087e-05
-1.0887e-05
1.67302e-05
5.60433e-05
0.000108468
0.000175886
0.000260721
0.000366035
0.000495614
0.000653981
0.000846217
0.00107739
0.00135143
0.00166797
0.00202007
0.00238119
0.00270447
0.0029284
0.00302503
-7.5644e-05
-6.95903e-05
-5.49146e-05
-3.06394e-05
4.05897e-06
5.05185e-05
0.000110557
0.000186604
0.000281873
0.000400594
0.000548264
0.000731802
0.000959316
0.00123881
0.00157566
0.00197219
0.00240081
0.00280179
0.00308254
0.00319906
-0.000131095
-0.000126369
-0.000114558
-9.47446e-05
-6.62315e-05
-2.78421e-05
2.20637e-05
8.57685e-05
0.000166449
0.000268552
0.000398329
0.000564483
0.000778692
0.00105453
0.00140262
0.00185442
0.00237737
0.00290131
0.00327576
0.00343334
-0.000199455
-0.000196321
-0.000188035
-0.000173728
-0.00015291
-0.000124688
-8.77908e-05
-4.03718e-05
2.02886e-05
9.82677e-05
0.000199765
0.000334334
0.00051666
0.000769299
0.00112718
0.00159635
0.00222217
0.00293094
0.00345477
0.00371926
-0.000278689
-0.000277403
-0.000273142
-0.000265226
-0.000253417
-0.00023727
-0.000216126
-0.000188973
-0.000154195
-0.00010914
-4.93198e-05
3.28933e-05
0.000150295
0.000324768
0.000595557
0.00103255
0.00171089
0.00264184
0.00346678
0.00397536
-0.000366434
-0.0003672
-0.000367279
-0.000366331
-0.000364461
-0.000361828
-0.000358651
-0.000355187
-0.000351681
-0.00034822
-0.000344421
-0.000338736
-0.00032798
-0.000309067
-0.000270034
-0.000137913
0.000291537
0.00136417
0.00284008
0.00370876
-0.000460178
-0.000463008
-0.000467478
-0.000473644
-0.000482044
-0.00049357
-0.000509532
-0.000531842
-0.000563297
-0.000608041
-0.000672358
-0.0007659
-0.000905403
-0.00113166
-0.00153715
-0.00218258
-0.00261883
-0.00187055
0.000193451
0.00179162
-0.00055735
-0.000562034
-0.000570573
-0.000583427
-0.000601627
-0.000626846
-0.000661573
-0.000709533
-0.00077642
-0.00087119
-0.00100852
-0.00121351
-0.00153242
-0.0020675
-0.00303829
-0.00468866
-0.00661835
-0.00639378
-0.00464357
-0.00192269
-0.000655557
-0.000661628
-0.000673438
-0.000691858
-0.000718446
-0.000755593
-0.000806851
-0.000877577
-0.000976126
-0.00111592
-0.00131948
-0.00162621
-0.00210836
-0.00292004
-0.00431116
-0.00662836
-0.00990325
-0.00997666
-0.00866762
-0.00588889
-0.000752833
-0.000759474
-0.000773166
-0.000795292
-0.000827898
-0.000873905
-0.000937593
-0.0010253
-0.00114691
-0.00131828
-0.00156553
-0.00193369
-0.00250267
-0.00342256
-0.00496542
-0.00716107
-0.0110793
-0.0104976
-0.00983231
-0.00729244
-0.000848191
-0.000854112
-0.000867456
-0.000890609
-0.000926062
-0.00097683
-0.00104752
-0.00114435
-0.00127722
-0.0014614
-0.00172071
-0.00209263
-0.00266103
-0.00346737
-0.0048424
-0.00657081
-0.00901139
-0.00885778
-0.00848307
-0.00630792
-0.000941531
-0.00094448
-0.000954358
-0.000975302
-0.00100986
-0.00106068
-0.00113261
-0.00123029
-0.00136198
-0.00154021
-0.00178366
-0.00210266
-0.00258291
-0.00325128
-0.0042162
-0.00525784
-0.00645247
-0.0063579
-0.00604783
-0.00440489
-0.00103627
-0.00103181
-0.00103335
-0.00104794
-0.00107763
-0.00112521
-0.0011925
-0.00128369
-0.00140446
-0.00156229
-0.00176948
-0.00203957
-0.00240173
-0.00286109
-0.00344191
-0.00396258
-0.00445604
-0.00428382
-0.00425075
-0.00250067
-0.00113679
-0.00111736
-0.00110355
-0.00110775
-0.00112937
-0.00116938
-0.00122809
-0.00130912
-0.00141529
-0.00154857
-0.00171935
-0.00192894
-0.00218444
-0.00246815
-0.00277814
-0.00297699
-0.00307099
-0.00279193
-0.00300403
-0.000954384
-0.00126317
-0.00120258
-0.00116569
-0.001155
-0.00116461
-0.00119405
-0.00124363
-0.0013143
-0.00140492
-0.00151682
-0.00165387
-0.00181233
-0.00198846
-0.00215811
-0.00230702
-0.00234248
-0.00227572
-0.00186151
-0.0021418
0.000586959
-0.00145194
-0.00128981
-0.00122361
-0.00119537
-0.00119157
-0.0012098
-0.00124686
-0.00130636
-0.00138313
-0.00147937
-0.00159213
-0.00171773
-0.00184973
-0.00196136
-0.00203077
-0.00199207
-0.00181525
-0.00132133
-0.0012016
0.00328865
-0.00186947
-0.00147789
-0.00133773
-0.00125335
-0.00122303
-0.0012418
-0.0012653
-0.00131994
-0.00138291
-0.00147206
-0.00156616
-0.00167868
-0.0017881
-0.00188493
-0.00195368
-0.00202647
-0.00202858
-0.00129943
0.00175184
0.0128469
-0.00292498
-0.00101045
-0.000881366
-0.00097499
-0.00102392
-0.00104761
-0.00109005
-0.0011496
-0.0012366
-0.00132198
-0.00143799
-0.00155332
-0.00168481
-0.00178323
-0.00181191
-0.00160425
-0.000706717
0.00275161
0.0137173
0.0347753
)
;

boundaryField
{
    movingWall
    {
        type            zeroGradient;
    }
    fixedWalls
    {
        type            zeroGradient;
    }
    frontAndBack
    {
        type            empty;
    }
}


// ************************************************************************* //
