/*--------------------------------*- C++ -*----------------------------------*\
| =========                 |                                                 |
| \\      /  F ield         | OpenFOAM: The Open Source CFD Toolbox           |
|  \\    /   O peration     | Version:  5.0                                   |
|   \\  /    A nd           | Web:      www.OpenFOAM.org                      |
|    \\/     M anipulation  |                                                 |
\*---------------------------------------------------------------------------*/
FoamFile
{
    version     2.0;
    format      ascii;
    class       surfaceScalarField;
    location    "1";
    object      phi;
}
// * * * * * * * * * * * * * * * * * * * * * * * * * * * * * * * * * * * * * //

dimensions      [0 3 -1 0 0 0 0];

internalField   nonuniform List<scalar> 
760
(
-4.8619e-08
4.86201e-08
-1.09758e-07
6.11388e-08
-1.73281e-07
6.35235e-08
-2.38431e-07
6.51503e-08
-3.05396e-07
6.6965e-08
-3.74266e-07
6.88694e-08
-4.44855e-07
7.05896e-08
-5.16527e-07
7.16721e-08
-5.87961e-07
7.14334e-08
-6.56869e-07
6.89085e-08
-7.19611e-07
6.27415e-08
-7.707e-07
5.10893e-08
-8.03122e-07
3.24216e-08
-8.09618e-07
6.49673e-09
-7.77414e-07
-3.22042e-08
-6.97726e-07
-7.96883e-08
-5.65711e-07
-1.32015e-07
-3.85831e-07
-1.7988e-07
-1.79169e-07
-2.06662e-07
-1.79169e-07
-6.41492e-08
1.12769e-07
-1.46874e-07
1.43864e-07
-2.31727e-07
1.48376e-07
-3.17528e-07
1.50952e-07
-4.04411e-07
1.53848e-07
-4.92336e-07
1.56794e-07
-5.8092e-07
1.59174e-07
-6.69273e-07
1.60026e-07
-7.55764e-07
1.57924e-07
-8.37707e-07
1.50851e-07
-9.11028e-07
1.36063e-07
-9.70063e-07
1.10124e-07
-1.00704e-06
6.93959e-08
-1.0113e-06
1.07604e-08
-9.70123e-07
-7.33813e-08
-8.71169e-07
-1.78643e-07
-7.06647e-07
-2.96537e-07
-4.80409e-07
-4.06118e-07
-2.18703e-07
-4.68367e-07
-3.97872e-07
-6.63461e-08
1.79115e-07
-1.51598e-07
2.29116e-07
-2.39109e-07
2.35887e-07
-3.27649e-07
2.39492e-07
-4.17386e-07
2.43585e-07
-5.08416e-07
2.47824e-07
-6.00594e-07
2.51351e-07
-6.93379e-07
2.52811e-07
-7.85617e-07
2.50162e-07
-8.75215e-07
2.40448e-07
-9.58725e-07
2.19573e-07
-1.0308e-06
1.82197e-07
-1.08341e-06
1.2201e-07
-1.10568e-06
3.30296e-08
-1.08151e-06
-9.75484e-08
-9.91383e-07
-2.68773e-07
-8.18733e-07
-4.69187e-07
-5.61523e-07
-6.63327e-07
-2.54404e-07
-7.75487e-07
-6.52275e-07
-6.56833e-08
2.44799e-07
-1.50262e-07
3.13695e-07
-2.37298e-07
3.22923e-07
-3.2566e-07
3.27854e-07
-4.15709e-07
3.33634e-07
-5.07862e-07
3.39978e-07
-6.02452e-07
3.45941e-07
-6.99611e-07
3.49971e-07
-7.99077e-07
3.49628e-07
-8.99873e-07
3.41244e-07
-9.99793e-07
3.19493e-07
-1.09457e-06
2.76974e-07
-1.17658e-06
2.04023e-07
-1.23323e-06
8.96807e-08
-1.24671e-06
-8.40692e-08
-1.18354e-06
-3.31942e-07
-1.00928e-06
-6.43455e-07
-7.05135e-07
-9.67469e-07
-3.16927e-07
-1.16369e-06
-9.69203e-07
-6.4103e-08
3.08902e-07
-1.47212e-07
3.96804e-07
-2.32971e-07
4.08682e-07
-3.20364e-07
4.15247e-07
-4.10009e-07
4.23279e-07
-5.02734e-07
4.32703e-07
-5.99495e-07
4.42702e-07
-7.01316e-07
4.51791e-07
-8.09171e-07
4.57483e-07
-9.23728e-07
4.55801e-07
-1.04484e-06
4.40605e-07
-1.17055e-06
4.02683e-07
-1.2952e-06
3.28679e-07
-1.40585e-06
2.00331e-07
-1.48596e-06
-3.96131e-09
-1.48169e-06
-3.36213e-07
-1.32725e-06
-7.97896e-07
-9.60677e-07
-1.33404e-06
-4.33406e-07
-1.69097e-06
-1.40261e-06
-6.20033e-08
3.70905e-07
-1.4303e-07
4.7783e-07
-2.26899e-07
4.92551e-07
-3.12603e-07
5.0095e-07
-4.01004e-07
5.11681e-07
-4.93367e-07
5.25066e-07
-5.91334e-07
5.40669e-07
-6.96971e-07
5.57428e-07
-8.12781e-07
5.73293e-07
-9.41629e-07
5.8465e-07
-1.08645e-06
5.85425e-07
-1.24945e-06
5.65684e-07
-1.43041e-06
5.0964e-07
-1.62257e-06
3.9249e-07
-1.80465e-06
1.78115e-07
-1.92591e-06
-2.14949e-07
-1.85836e-06
-8.65443e-07
-1.42844e-06
-1.76397e-06
-6.79366e-07
-2.44004e-06
-2.08197e-06
-5.93816e-08
4.30287e-07
-1.37693e-07
5.56141e-07
-2.19022e-07
5.73881e-07
-3.02109e-07
5.84038e-07
-3.88027e-07
5.97598e-07
-4.7843e-07
6.15469e-07
-5.75616e-07
6.37855e-07
-6.82703e-07
6.64515e-07
-8.03858e-07
6.94448e-07
-9.44555e-07
7.25347e-07
-1.11179e-06
7.52657e-07
-1.31399e-06
7.67888e-07
-1.56029e-06
7.55943e-07
-1.85844e-06
6.9064e-07
-2.20051e-06
5.20185e-07
-2.5623e-06
1.46836e-07
-2.7159e-06
-7.11845e-07
-2.24558e-06
-2.23428e-06
-1.18696e-06
-3.49866e-06
-3.26894e-06
-5.62661e-08
4.86553e-07
-1.31435e-07
6.3131e-07
-2.09425e-07
6.51871e-07
-2.88743e-07
6.63355e-07
-3.70538e-07
6.79393e-07
-4.56721e-07
7.01652e-07
-5.50081e-07
7.31214e-07
-6.54593e-07
7.69027e-07
-7.75895e-07
8.15751e-07
-9.22013e-07
8.71464e-07
-1.10443e-06
9.35076e-07
-1.33956e-06
1.00302e-06
-1.65083e-06
1.06721e-06
-2.07255e-06
1.11237e-06
-2.64524e-06
1.09287e-06
-3.32155e-06
8.23146e-07
-3.75869e-06
-2.74712e-07
-3.26661e-06
-2.72635e-06
-1.88487e-06
-4.88041e-06
-5.1538e-06
-5.29109e-08
5.39464e-07
-1.24611e-07
7.0301e-07
-1.9852e-07
7.2578e-07
-2.72818e-07
7.37653e-07
-3.48579e-07
7.55154e-07
-4.27762e-07
7.80836e-07
-5.1335e-07
8.16801e-07
-6.09731e-07
8.65408e-07
-7.2337e-07
9.2939e-07
-8.63951e-07
1.01205e-06
-1.04641e-06
1.11754e-06
-1.29458e-06
1.25119e-06
-1.64692e-06
1.41955e-06
-2.16042e-06
1.62586e-06
-2.88604e-06
1.8185e-06
-3.70568e-06
1.64278e-06
-4.08067e-06
1.00284e-07
-3.54213e-06
-3.2649e-06
-2.23571e-06
-6.18682e-06
-7.38952e-06
-4.97507e-08
5.89214e-07
-1.17933e-07
7.71192e-07
-1.87215e-07
7.95062e-07
-2.55306e-07
8.05745e-07
-3.23049e-07
8.22897e-07
-3.92221e-07
8.50008e-07
-4.65614e-07
8.90194e-07
-5.47391e-07
9.47185e-07
-6.43783e-07
1.02578e-06
-7.64371e-07
1.13263e-06
-9.24448e-07
1.27761e-06
-1.14944e-06
1.47618e-06
-1.48084e-06
1.75095e-06
-1.96723e-06
2.11225e-06
-2.584e-06
2.43527e-06
-3.14743e-06
2.20621e-06
-3.35544e-06
3.0829e-07
-2.85698e-06
-3.76336e-06
-1.82521e-06
-7.21859e-06
-9.21473e-06
-4.74453e-08
6.3666e-07
-1.12596e-07
8.36343e-07
-1.77068e-07
8.59533e-07
-2.37974e-07
8.66651e-07
-2.95874e-07
8.80797e-07
-3.52166e-07
9.063e-07
-4.09057e-07
9.47085e-07
-4.69726e-07
1.00785e-06
-5.38745e-07
1.0948e-06
-6.22868e-07
1.21676e-06
-7.32442e-07
1.38719e-06
-8.83716e-07
1.62746e-06
-1.10025e-06
1.96748e-06
-1.41502e-06
2.42703e-06
-1.72807e-06
2.74832e-06
-1.86752e-06
2.34566e-06
-1.9135e-06
3.54273e-07
-1.72722e-06
-3.94964e-06
-1.28873e-06
-7.65708e-06
-1.05035e-05
-4.7171e-08
6.83831e-07
-1.10453e-07
8.99625e-07
-1.7029e-07
9.1937e-07
-2.23383e-07
9.19743e-07
-2.69989e-07
9.27404e-07
-3.1109e-07
9.474e-07
-3.4809e-07
9.84085e-07
-3.82754e-07
1.04252e-06
-4.1704e-07
1.12909e-06
-4.53119e-07
1.25284e-06
-4.92794e-07
1.42686e-06
-5.36005e-07
1.67067e-06
-5.7998e-07
2.01146e-06
-5.94399e-07
2.44145e-06
-5.70482e-07
2.7244e-06
-3.74799e-07
2.14998e-06
-1.118e-07
9.12737e-08
-2.20017e-07
-3.84142e-06
-7.32703e-07
-7.1444e-06
-1.12362e-05
-5.00404e-08
7.33871e-07
-1.13993e-07
9.63578e-07
-1.70084e-07
9.75462e-07
-2.14937e-07
9.64596e-07
-2.49238e-07
9.61704e-07
-2.73583e-07
9.71745e-07
-2.88601e-07
9.99103e-07
-2.94428e-07
1.04835e-06
-2.90014e-07
1.12467e-06
-2.72285e-07
1.23511e-06
-2.34029e-07
1.3886e-06
-1.5807e-07
1.59471e-06
-1.90879e-08
1.87247e-06
2.02503e-07
2.21985e-06
5.68074e-07
2.35883e-06
9.23836e-07
1.79422e-06
1.04639e-06
-3.12787e-08
7.45426e-07
-3.54046e-06
2.11387e-08
-6.42011e-06
-1.1215e-05
-6.13051e-08
7.95176e-07
-1.28284e-07
1.03056e-06
-1.80612e-07
1.02779e-06
-2.16677e-07
1.00066e-06
-2.3767e-07
9.82697e-07
-2.44767e-07
9.78842e-07
-2.37612e-07
9.91947e-07
-2.15591e-07
1.02632e-06
-1.75575e-07
1.08466e-06
-1.11956e-07
1.17149e-06
-1.20157e-08
1.28866e-06
1.38184e-07
1.44451e-06
3.65342e-07
1.64532e-06
7.11516e-07
1.87368e-06
1.14332e-06
1.92703e-06
1.54204e-06
1.39549e-06
1.57739e-06
-6.66276e-08
1.00861e-06
-2.97168e-06
2.06473e-07
-5.61797e-06
-1.10085e-05
-7.54474e-08
8.70623e-07
-1.53633e-07
1.10874e-06
-2.05067e-07
1.07922e-06
-2.33434e-07
1.02903e-06
-2.4149e-07
9.90753e-07
-2.30543e-07
9.67895e-07
-2.01874e-07
9.63278e-07
-1.54999e-07
9.7945e-07
-8.48842e-08
1.01454e-06
1.51211e-08
1.07148e-06
1.51038e-07
1.15275e-06
3.3928e-07
1.25627e-06
6.08135e-07
1.37646e-06
9.82958e-07
1.49886e-06
1.39574e-06
1.51425e-06
1.73939e-06
1.05183e-06
1.69571e-06
-2.29419e-08
9.57237e-07
-2.23321e-06
2.42401e-07
-4.90314e-06
-1.07661e-05
-1.28835e-07
9.99459e-07
-2.15218e-07
1.19513e-06
-2.57594e-07
1.1216e-06
-2.69875e-07
1.04131e-06
-2.60398e-07
9.81276e-07
-2.3269e-07
9.40187e-07
-1.8488e-07
9.15468e-07
-1.1403e-07
9.086e-07
-1.99888e-08
9.20502e-07
1.01323e-07
9.5017e-07
2.59593e-07
9.94478e-07
4.62726e-07
1.05313e-06
7.26051e-07
1.11314e-06
1.06432e-06
1.16059e-06
1.40531e-06
1.17326e-06
1.65203e-06
8.05109e-07
1.56781e-06
6.12859e-08
8.17591e-07
-1.48299e-06
3.57161e-07
-4.44271e-06
-1.0409e-05
-1.79293e-07
1.17875e-06
-2.89394e-07
1.30523e-06
-3.22645e-07
1.15485e-06
-3.27009e-07
1.04567e-06
-3.08115e-07
9.62383e-07
-2.66317e-07
8.98389e-07
-2.01739e-07
8.50889e-07
-1.16841e-07
8.23703e-07
-5.39735e-09
8.09058e-07
1.32051e-07
8.12722e-07
3.05139e-07
8.2139e-07
5.13743e-07
8.44529e-07
7.65816e-07
8.61065e-07
1.05978e-06
8.66621e-07
1.34189e-06
8.91149e-07
1.51733e-06
6.29675e-07
1.36884e-06
2.0977e-07
7.43914e-07
-8.58063e-07
5.05297e-07
-4.20409e-06
-9.90369e-06
-4.39743e-07
1.61849e-06
-5.04426e-07
1.36991e-06
-4.68731e-07
1.11915e-06
-4.18898e-07
9.95839e-07
-3.50904e-07
8.9439e-07
-2.77142e-07
8.24627e-07
-1.85975e-07
7.59722e-07
-8.68624e-08
7.2459e-07
3.45395e-08
6.87656e-07
1.73812e-07
6.73449e-07
3.42038e-07
6.53164e-07
5.33215e-07
6.53352e-07
7.56365e-07
6.37914e-07
9.82891e-07
6.40095e-07
1.19094e-06
6.83096e-07
1.27874e-06
5.41879e-07
1.21019e-06
2.78315e-07
1.01437e-06
-6.62243e-07
1.00837e-06
-4.19808e-06
-8.89532e-06
-6.31912e-07
2.25041e-06
-5.17103e-07
1.2551e-06
-3.35955e-07
9.38006e-07
-1.81489e-07
8.41374e-07
-2.704e-08
7.3994e-07
1.1776e-07
6.79827e-07
2.86116e-07
5.91366e-07
4.41276e-07
5.69429e-07
6.28953e-07
4.9998e-07
7.99131e-07
5.03271e-07
1.01257e-06
4.39723e-07
1.20063e-06
4.6529e-07
1.43671e-06
4.01836e-07
1.62947e-06
4.47336e-07
1.9174e-06
3.95171e-07
2.1265e-06
3.32779e-07
2.35215e-06
5.26586e-08
2.59295e-06
-9.03036e-07
2.12038e-06
-3.72552e-06
-6.77494e-06
2.25041e-06
3.50551e-06
4.44351e-06
5.28489e-06
6.02483e-06
6.70466e-06
7.29602e-06
7.86545e-06
8.36543e-06
8.8687e-06
9.30842e-06
9.77371e-06
1.01756e-05
1.06229e-05
1.10181e-05
1.13508e-05
1.14035e-05
1.05005e-05
6.77494e-06
)
;

boundaryField
{
    movingWall
    {
        type            calculated;
        value           uniform 0;
    }
    fixedWalls
    {
        type            calculated;
        value           uniform 0;
    }
    frontAndBack
    {
        type            empty;
        value           nonuniform 0();
    }
}


// ************************************************************************* //
