/*--------------------------------*- C++ -*----------------------------------*\
| =========                 |                                                 |
| \\      /  F ield         | OpenFOAM: The Open Source CFD Toolbox           |
|  \\    /   O peration     | Version:  5.0                                   |
|   \\  /    A nd           | Web:      www.OpenFOAM.org                      |
|    \\/     M anipulation  |                                                 |
\*---------------------------------------------------------------------------*/
FoamFile
{
    version     2.0;
    format      ascii;
    class       volVectorField;
    location    "1";
    object      U;
}
// * * * * * * * * * * * * * * * * * * * * * * * * * * * * * * * * * * * * * //

dimensions      [0 1 -1 0 0 0 0];

internalField   nonuniform List<vector> 
400
(
(-0.000418532 0.000412279 0)
(-0.00157254 0.00047567 0)
(-0.00282863 0.000496018 0)
(-0.00411865 0.000515652 0)
(-0.00544136 0.00053861 0)
(-0.00680169 0.000563976 0)
(-0.00819915 0.000589614 0)
(-0.00962585 0.000611645 0)
(-0.0110626 0.000624051 0)
(-0.012473 0.000618138 0)
(-0.0137981 0.000580681 0)
(-0.0149626 0.000492644 0)
(-0.0158097 0.000343118 0)
(-0.0161945 0.0001546 0)
(-0.0159625 -0.000186081 0)
(-0.0148334 -0.000599798 0)
(-0.0127054 -0.00106517 0)
(-0.00955206 -0.00149671 0)
(-0.00567063 -0.00175372 0)
(-0.0016486 -0.00162015 0)
(-0.000509015 0.00159575 0)
(-0.00210721 0.00203945 0)
(-0.0037869 0.00211281 0)
(-0.00549773 0.00215721 0)
(-0.00722705 0.00220611 0)
(-0.00897836 0.0022561 0)
(-0.0107478 0.00229813 0)
(-0.0125232 0.00231777 0)
(-0.0142797 0.00229356 0)
(-0.0159742 0.00219528 0)
(-0.0175396 0.00198169 0)
(-0.0188795 0.00159984 0)
(-0.0198549 0.000998051 0)
(-0.0202824 0.0001247 0)
(-0.019925 -0.00106545 0)
(-0.0185251 -0.00256558 0)
(-0.0158784 -0.00423313 0)
(-0.0119278 -0.00576857 0)
(-0.00704926 -0.0066323 0)
(-0.00188114 -0.00567081 0)
(-0.000519822 0.00291315 0)
(-0.00218011 0.00372343 0)
(-0.00390789 0.00383587 0)
(-0.00567319 0.00389739 0)
(-0.00745834 0.00396682 0)
(-0.00926903 0.00403781 0)
(-0.0111052 0.00409528 0)
(-0.0129605 0.00411571 0)
(-0.0148186 0.00406394 0)
(-0.0166472 0.00388972 0)
(-0.0183912 0.00352414 0)
(-0.0199627 0.00287887 0)
(-0.0212284 0.00185223 0)
(-0.0219977 0.000337877 0)
(-0.0219986 -0.00175005 0)
(-0.0208719 -0.0044405 0)
(-0.0182477 -0.00753224 0)
(-0.0139057 -0.0104804 0)
(-0.00824864 -0.0121804 0)
(-0.00216164 -0.010327 0)
(-0.000510282 0.00423659 0)
(-0.00216086 0.00542411 0)
(-0.00387548 0.00558348 0)
(-0.00563416 0.00566829 0)
(-0.00741997 0.00576612 0)
(-0.00924405 0.00587042 0)
(-0.0111143 0.00596275 0)
(-0.0130361 0.00601339 0)
(-0.0150087 0.00597668 0)
(-0.0170205 0.0057853 0)
(-0.0190403 0.0053437 0)
(-0.0210035 0.00452274 0)
(-0.0227926 0.00315903 0)
(-0.0242069 0.00106597 0)
(-0.0249462 -0.00192945 0)
(-0.0244964 -0.00599791 0)
(-0.0221679 -0.0109387 0)
(-0.0173626 -0.0159196 0)
(-0.0103879 -0.0188801 0)
(-0.00263153 -0.0158777 0)
(-0.000492174 0.00553472 0)
(-0.00211412 0.00710119 0)
(-0.00380072 0.00731178 0)
(-0.00553648 0.00742611 0)
(-0.0073075 0.00756305 0)
(-0.00913178 0.00771866 0)
(-0.0110275 0.00787487 0)
(-0.0130151 0.00800051 0)
(-0.0151154 0.00804516 0)
(-0.0173459 0.00793073 0)
(-0.0197133 0.00754037 0)
(-0.0221977 0.00670488 0)
(-0.0247237 0.0051891 0)
(-0.027112 0.00268621 0)
(-0.0290798 -0.00118374 0)
(-0.0299313 -0.00675988 0)
(-0.0284749 -0.0141761 0)
(-0.0233486 -0.0223447 0)
(-0.0143595 -0.0274985 0)
(-0.0034634 -0.0229964 0)
(-0.000468524 0.00679383 0)
(-0.00205096 0.00874373 0)
(-0.00369723 0.00900754 0)
(-0.00539668 0.00915655 0)
(-0.00713705 0.00934292 0)
(-0.00894333 0.00956866 0)
(-0.0108447 0.00982067 0)
(-0.0128788 0.0100726 0)
(-0.0150919 0.0102776 0)
(-0.017539 0.0103576 0)
(-0.0202802 0.0101867 0)
(-0.0233696 0.0095684 0)
(-0.0268274 0.00820219 0)
(-0.030599 0.00563863 0)
(-0.0344214 0.00122375 0)
(-0.0375997 -0.00582109 0)
(-0.0384039 -0.0164653 0)
(-0.0338829 -0.0297031 0)
(-0.0222109 -0.0392974 0)
(-0.00539269 -0.0329298 0)
(-0.00044415 0.00800866 0)
(-0.00196747 0.0103354 0)
(-0.00356573 0.0106591 0)
(-0.00521188 0.0108443 0)
(-0.00689974 0.011086 0)
(-0.00865927 0.0113962 0)
(-0.0105298 0.0117718 0)
(-0.0125655 0.0121986 0)
(-0.0148391 0.0126445 0)
(-0.0174475 0.0130473 0)
(-0.0205165 0.0132957 0)
(-0.0242026 0.0131969 0)
(-0.0286864 0.0124258 0)
(-0.0341455 0.0104392 0)
(-0.0406479 0.00628669 0)
(-0.0479327 -0.001762 0)
(-0.053583 -0.0157299 0)
(-0.0519421 -0.037335 0)
(-0.036221 -0.0556665 0)
(-0.0106909 -0.0482501 0)
(-0.00041451 0.00916517 0)
(-0.00187008 0.0118697 0)
(-0.00340867 0.0122523 0)
(-0.00498189 0.0124687 0)
(-0.00658937 0.012764 0)
(-0.00826298 0.0131633 0)
(-0.0100491 0.0136787 0)
(-0.0120145 0.014316 0)
(-0.014254 0.0150697 0)
(-0.0169021 0.0159139 0)
(-0.0201511 0.0167853 0)
(-0.0242732 0.0175512 0)
(-0.0296508 0.017955 0)
(-0.0368941 0.0175304 0)
(-0.0469741 0.0152572 0)
(-0.0601116 0.0083189 0)
(-0.0734443 -0.00970631 0)
(-0.0740428 -0.0467196 0)
(-0.0515758 -0.0776799 0)
(-0.0218661 -0.0763364 0)
(-0.000381631 0.0102568 0)
(-0.0017659 0.0133384 0)
(-0.0032339 0.0137717 0)
(-0.00471447 0.014006 0)
(-0.0062101 0.0143415 0)
(-0.00775098 0.0148199 0)
(-0.00938544 0.0154723 0)
(-0.0111853 0.0163304 0)
(-0.0132557 0.0174259 0)
(-0.0157519 0.0187881 0)
(-0.0189096 0.0204384 0)
(-0.0230881 0.0223753 0)
(-0.028828 0.0245516 0)
(-0.0370987 0.0268252 0)
(-0.0498658 0.028286 0)
(-0.0685565 0.0236376 0)
(-0.0848764 -0.00130834 0)
(-0.0778251 -0.0604192 0)
(-0.0546797 -0.110388 0)
(-0.0313859 -0.12363 0)
(-0.000350263 0.0112831 0)
(-0.00166685 0.0147379 0)
(-0.00305793 0.0152048 0)
(-0.00442879 0.0154318 0)
(-0.00578118 0.0157797 0)
(-0.00713974 0.0163084 0)
(-0.0085487 0.0170695 0)
(-0.0100747 0.0181231 0)
(-0.0118158 0.0195433 0)
(-0.0139187 0.021427 0)
(-0.0166121 0.0239095 0)
(-0.0202534 0.0271895 0)
(-0.0253514 0.03155 0)
(-0.0327727 0.0371353 0)
(-0.0447133 0.0421145 0)
(-0.0619611 0.0376796 0)
(-0.0746528 0.00336656 0)
(-0.059608 -0.0785749 0)
(-0.0483534 -0.145004 0)
(-0.0150034 -0.175078 0)
(-0.000327489 0.0122549 0)
(-0.0015915 0.0160713 0)
(-0.00290879 0.0165432 0)
(-0.00415857 0.0167243 0)
(-0.00533998 0.0170402 0)
(-0.00646986 0.0175695 0)
(-0.00758266 0.0183824 0)
(-0.00872869 0.0195632 0)
(-0.00997811 0.0212214 0)
(-0.0114297 0.0235111 0)
(-0.0132283 0.0266636 0)
(-0.0155895 0.0310412 0)
(-0.018792 0.0371513 0)
(-0.0233902 0.0451694 0)
(-0.0304251 0.0518766 0)
(-0.039989 0.0449862 0)
(-0.046996 0.00573242 0)
(-0.0258017 -0.0839082 0)
(-0.0415611 -0.157328 0)
(-0.000421138 -0.206482 0)
(-0.000326477 0.0132015 0)
(-0.00157103 0.017363 0)
(-0.00282742 0.0177915 0)
(-0.00395289 0.0178682 0)
(-0.00494283 0.0180915 0)
(-0.005807 0.0185526 0)
(-0.00656849 0.0193348 0)
(-0.00725566 0.0205364 0)
(-0.00789959 0.0222877 0)
(-0.00853092 0.0247722 0)
(-0.00917602 0.0282696 0)
(-0.00984161 0.0332224 0)
(-0.0104014 0.0402675 0)
(-0.0111719 0.0497357 0)
(-0.0109833 0.0553136 0)
(-0.0085357 0.0459746 0)
(-0.0139197 0.00570946 0)
(0.0136888 -0.0786177 0)
(-0.025573 -0.154716 0)
(0.00405707 -0.221449 0)
(-0.000353454 0.0141727 0)
(-0.0016384 0.0186204 0)
(-0.00287611 0.0189431 0)
(-0.00387988 0.0188508 0)
(-0.00466323 0.0189046 0)
(-0.00523715 0.0192145 0)
(-0.00561278 0.0198664 0)
(-0.00579868 0.0209616 0)
(-0.00578267 0.0226126 0)
(-0.0055263 0.0249894 0)
(-0.00493653 0.0283209 0)
(-0.00380872 0.032913 0)
(-0.00187004 0.0392395 0)
(0.00172785 0.0473148 0)
(0.00589223 0.0519897 0)
(0.0184357 0.0416079 0)
(0.0114008 0.000741472 0)
(0.0368021 -0.0691011 0)
(-0.0114633 -0.129913 0)
(0.0142376 -0.223926 0)
(-0.000494439 0.0152848 0)
(-0.00190601 0.0199855 0)
(-0.00314649 0.0200678 0)
(-0.00402086 0.0196762 0)
(-0.00458219 0.0194797 0)
(-0.0048468 0.0195535 0)
(-0.00483842 0.0199748 0)
(-0.00452879 0.0208159 0)
(-0.00389991 0.0221963 0)
(-0.00287119 0.0242196 0)
(-0.00132017 0.0270056 0)
(0.00107896 0.0307734 0)
(0.00467218 0.035808 0)
(0.0105919 0.0420788 0)
(0.0165916 0.0445538 0)
(0.0307379 0.0339029 0)
(0.0246947 -0.00147404 0)
(0.0438574 -0.0634563 0)
(-0.00837149 -0.114777 0)
(0.0201071 -0.216801 0)
(-0.000570921 0.01667 0)
(-0.00233827 0.021297 0)
(-0.00368069 0.0210179 0)
(-0.00446631 0.0203011 0)
(-0.0048113 0.0197561 0)
(-0.00479274 0.0195147 0)
(-0.00434323 0.019613 0)
(-0.00360069 0.020149 0)
(-0.00243788 0.0211037 0)
(-0.000806326 0.0225811 0)
(0.00145293 0.0246329 0)
(0.00473937 0.0273044 0)
(0.00906484 0.0306421 0)
(0.0158498 0.0343144 0)
(0.0219657 0.0351254 0)
(0.0350737 0.024881 0)
(0.0299748 -0.00116114 0)
(0.0424936 -0.050744 0)
(-0.00975502 -0.102478 0)
(0.0235205 -0.214531 0)
(-0.00146844 0.0185821 0)
(-0.00345956 0.023153 0)
(-0.00494802 0.0222061 0)
(-0.00538519 0.0208425 0)
(-0.00536285 0.019836 0)
(-0.00499966 0.0191877 0)
(-0.00425308 0.0188963 0)
(-0.00303845 0.0190207 0)
(-0.00140261 0.0195218 0)
(0.000696231 0.0204329 0)
(0.00342862 0.0217283 0)
(0.00710121 0.0234311 0)
(0.0114366 0.0252897 0)
(0.0179829 0.0270714 0)
(0.0231793 0.0272739 0)
(0.0337817 0.0187091 0)
(0.0293041 0.000236676 0)
(0.0379404 -0.0368967 0)
(-0.0116072 -0.0928008 0)
(0.0313621 -0.214167 0)
(-0.00156592 0.0220198 0)
(-0.00510375 0.0246411 0)
(-0.00645921 0.0227049 0)
(-0.00657973 0.0209145 0)
(-0.00650191 0.0195292 0)
(-0.00582001 0.0184813 0)
(-0.00476315 0.0177747 0)
(-0.00325809 0.0173783 0)
(-0.00130611 0.0174075 0)
(0.00113589 0.0177507 0)
(0.00418217 0.0183804 0)
(0.00806961 0.0192066 0)
(0.0123189 0.0200527 0)
(0.0184474 0.020432 0)
(0.0227301 0.0207436 0)
(0.0312859 0.0140509 0)
(0.0270607 0.00164757 0)
(0.0323484 -0.0227873 0)
(-0.00979671 -0.0885975 0)
(0.0375169 -0.215053 0)
(-0.00548246 0.0267608 0)
(-0.0108052 0.0286762 0)
(-0.00992093 0.0243353 0)
(-0.00903583 0.0213764 0)
(-0.0077809 0.0192767 0)
(-0.00630742 0.0179207 0)
(-0.00467128 0.0167414 0)
(-0.00280432 0.0161537 0)
(-0.000592968 0.0155164 0)
(0.00195688 0.015388 0)
(0.00501551 0.0150987 0)
(0.00863017 0.0152869 0)
(0.0124486 0.0150829 0)
(0.0177195 0.0149201 0)
(0.0206158 0.015473 0)
(0.0264894 0.0120001 0)
(0.0231745 0.00779906 0)
(0.0284884 -0.0106148 0)
(0.00265397 -0.0910297 0)
(0.0507862 -0.212715 0)
(-0.00917394 0.0407378 0)
(-0.013712 0.0224423 0)
(-0.00807491 0.0172282 0)
(-0.00540234 0.0162203 0)
(-0.00196765 0.0147835 0)
(0.000728367 0.01336 0)
(0.00416584 0.0121141 0)
(0.00703194 0.0113338 0)
(0.010893 0.0106695 0)
(0.0139504 0.0102173 0)
(0.0183221 0.0098679 0)
(0.0218346 0.00965337 0)
(0.0262937 0.00938405 0)
(0.0310796 0.00951178 0)
(0.0341245 0.0102387 0)
(0.0416154 0.00698121 0)
(0.0395498 1.67718e-05 0)
(0.0472248 -0.023275 0)
(0.0404142 -0.0997549 0)
(0.0723257 -0.172751 0)
(0.0469196 0.0424688 0)
(0.0537404 0.0320251 0)
(0.0785719 0.0241671 0)
(0.0959395 0.0202988 0)
(0.116178 0.0170529 0)
(0.125798 0.0159787 0)
(0.142277 0.0134344 0)
(0.149872 0.0132665 0)
(0.164272 0.0108953 0)
(0.170997 0.0114851 0)
(0.183178 0.00902158 0)
(0.190152 0.0102475 0)
(0.199746 0.00767021 0)
(0.207285 0.00930869 0)
(0.213528 0.00667125 0)
(0.220317 0.0085507 0)
(0.224161 0.00374616 0)
(0.217911 -0.00228841 0)
(0.189741 -0.0125567 0)
(0.141902 -0.0315411 0)
)
;

boundaryField
{
    movingWall
    {
        type            fixedValue;
        value           uniform (1 0 0);
    }
    fixedWalls
    {
        type            noSlip;
    }
    frontAndBack
    {
        type            empty;
    }
}


// ************************************************************************* //
