/*--------------------------------*- C++ -*----------------------------------*\
| =========                 |                                                 |
| \\      /  F ield         | OpenFOAM: The Open Source CFD Toolbox           |
|  \\    /   O peration     | Version:  5.0                                   |
|   \\  /    A nd           | Web:      www.OpenFOAM.org                      |
|    \\/     M anipulation  |                                                 |
\*---------------------------------------------------------------------------*/
FoamFile
{
    version     2.0;
    format      ascii;
    class       volScalarField;
    location    "1";
    object      yPlus;
}
// * * * * * * * * * * * * * * * * * * * * * * * * * * * * * * * * * * * * * //

dimensions      [0 0 0 0 0 0 0];

internalField   uniform 0;

boundaryField
{
    movingWall
    {
        type            calculated;
        value           nonuniform List<scalar> 
20
(
15.4437
15.3851
15.1801
15.0357
14.866
14.7847
14.6444
14.5794
14.4551
14.3969
14.2905
14.2295
14.1447
14.0781
14.0223
13.9618
13.927
13.983
14.2334
14.6516
)
;
    }
    fixedWalls
    {
        type            calculated;
        value           nonuniform List<scalar> 
60
(
0.383239
0.647103
0.860111
1.03286
1.17862
1.3048
1.41607
1.51448
1.60187
1.67992
1.75066
1.81697
1.88262
1.9553
2.04204
2.15871
2.34922
2.61327
3.23102
3.97761
0.760171
1.22216
1.6241
2.00588
2.41121
2.88827
3.51498
4.45551
5.64694
6.62797
7.18475
7.44121
7.48963
7.37786
7.34535
7.35614
7.38751
7.39415
6.84252
6.02837
0.383239
0.64088
0.847318
1.01868
1.16918
1.30624
1.43356
1.55284
1.66435
1.76694
1.85811
1.9346
1.9883
2.01217
1.99772
1.92649
1.78536
1.55472
1.21816
0.760171
)
;
    }
    frontAndBack
    {
        type            empty;
    }
}


// ************************************************************************* //
