/*--------------------------------*- C++ -*----------------------------------*\
| =========                 |                                                 |
| \\      /  F ield         | OpenFOAM: The Open Source CFD Toolbox           |
|  \\    /   O peration     | Version:  5.0                                   |
|   \\  /    A nd           | Web:      www.OpenFOAM.org                      |
|    \\/     M anipulation  |                                                 |
\*---------------------------------------------------------------------------*/
FoamFile
{
    version     2.0;
    format      ascii;
    class       volScalarField;
    location    "7.5";
    object      p;
}
// * * * * * * * * * * * * * * * * * * * * * * * * * * * * * * * * * * * * * //

dimensions      [0 2 -2 0 0 0 0];

internalField   nonuniform List<scalar> 
400
(
7.51134e-08
-8.88451e-05
-0.000257856
-0.000165213
-0.000833652
-0.0024906
-0.00453147
-0.00640864
-0.00794868
-0.00903819
-0.00962529
-0.00965214
-0.00905878
-0.00763686
-0.00526067
-0.0019106
0.00226749
0.00666786
0.00976837
0.0111397
5.14035e-05
-2.16621e-05
-0.000220527
-0.000838892
-0.00205459
-0.00381525
-0.00564203
-0.00737636
-0.00877369
-0.00978054
-0.0103443
-0.0104218
-0.00993503
-0.00875517
-0.00674517
-0.00386952
-0.000147464
0.00407392
0.00764618
0.00976623
0.000295014
-6.63332e-05
-0.000817628
-0.00211434
-0.00389292
-0.00577907
-0.0075806
-0.00917692
-0.0103499
-0.0111487
-0.011586
-0.0116303
-0.0111664
-0.0101663
-0.00856509
-0.00632743
-0.00339142
0.000236771
0.00382768
0.0062857
0.000160596
-0.000535446
-0.00193155
-0.00390168
-0.00604631
-0.00800517
-0.00959645
-0.010741
-0.0115318
-0.0120656
-0.0123491
-0.0123556
-0.0120263
-0.0112698
-0.0100408
-0.00834661
-0.00616335
-0.00332564
-0.000216304
0.00208769
-0.000684695
-0.00165368
-0.00355949
-0.00587756
-0.00800974
-0.00968361
-0.0108866
-0.0117238
-0.0123217
-0.0127348
-0.0129721
-0.0130068
-0.0127791
-0.0122251
-0.011289
-0.00997781
-0.00836738
-0.00624774
-0.00392184
-0.00184963
-0.00223075
-0.00330894
-0.0053517
-0.00759445
-0.00946194
-0.0107531
-0.0116438
-0.0123131
-0.0128285
-0.0132014
-0.0134342
-0.0135051
-0.0133737
-0.0129894
-0.0123087
-0.0112897
-0.0100904
-0.00851792
-0.00686054
-0.00513862
-0.00402609
-0.00505265
-0.0069343
-0.00892364
-0.0104532
-0.0114366
-0.0121694
-0.0127588
-0.0132297
-0.0135778
-0.0138047
-0.0138951
-0.0138245
-0.0135543
-0.0130763
-0.0122896
-0.0113961
-0.0102267
-0.00907583
-0.00769732
-0.00562656
-0.00652994
-0.00814865
-0.00985555
-0.0111012
-0.0118995
-0.0125636
-0.0131235
-0.0135732
-0.0139032
-0.0141175
-0.0142115
-0.014175
-0.0139752
-0.0136375
-0.0130124
-0.0123505
-0.011437
-0.0106461
-0.0095835
-0.00677829
-0.00756496
-0.00895317
-0.0104473
-0.0115073
-0.0122218
-0.0128761
-0.0134346
-0.0138793
-0.0141988
-0.0143974
-0.0144791
-0.0144531
-0.0142826
-0.0140303
-0.0134845
-0.0130209
-0.0121963
-0.0117333
-0.0108728
-0.00742144
-0.00811616
-0.00936169
-0.0107364
-0.0117243
-0.0124212
-0.0130964
-0.0136754
-0.0141361
-0.0144587
-0.0146475
-0.0147069
-0.0146686
-0.0144866
-0.0142766
-0.0137196
-0.0134483
-0.0125339
-0.0124048
-0.0116128
-0.00755173
-0.00820271
-0.00939642
-0.0107448
-0.011745
-0.0124954
-0.0132004
-0.0138165
-0.0143148
-0.0146527
-0.0148412
-0.0148726
-0.0148058
-0.0145762
-0.0143662
-0.013746
-0.0135916
-0.0124907
-0.0127003
-0.0117835
-0.0072148
-0.00788081
-0.00907799
-0.0104709
-0.0115451
-0.0123766
-0.0131341
-0.013802
-0.0143426
-0.0147159
-0.0149161
-0.0149329
-0.0148153
-0.0145473
-0.0142401
-0.0136076
-0.0133316
-0.0121072
-0.0125252
-0.0113617
-0.00650469
-0.00722842
-0.00844649
-0.00989436
-0.0110864
-0.0120195
-0.0128477
-0.0135779
-0.0141759
-0.0145951
-0.0148164
-0.0148191
-0.0146528
-0.0143196
-0.0138773
-0.0132096
-0.0126726
-0.0113807
-0.0118401
-0.0103353
-0.00564118
-0.00639697
-0.00758332
-0.00900032
-0.0103206
-0.0113795
-0.0123028
-0.0131117
-0.0137795
-0.0142477
-0.0144918
-0.0144867
-0.0142649
-0.013843
-0.0132554
-0.0124792
-0.0116397
-0.0102905
-0.0106506
-0.00874411
-0.00483274
-0.00554069
-0.00657774
-0.0078333
-0.00921258
-0.0104254
-0.011487
-0.0124022
-0.0131514
-0.0136727
-0.0139415
-0.0139344
-0.0136572
-0.0131258
-0.0123755
-0.0114125
-0.0102763
-0.00884709
-0.0090331
-0.00665234
-0.0044674
-0.00483344
-0.0054628
-0.00643333
-0.00776219
-0.00913773
-0.0103965
-0.0114684
-0.0123317
-0.0129318
-0.0132365
-0.0132174
-0.0128808
-0.0122223
-0.0112788
-0.0100769
-0.00867763
-0.00711868
-0.00702904
-0.00409383
-0.00451142
-0.00437432
-0.0042839
-0.00484531
-0.00605084
-0.00753859
-0.00902345
-0.010307
-0.0113321
-0.0120513
-0.0124311
-0.012434
-0.0120371
-0.0112429
-0.0100895
-0.00861477
-0.0069196
-0.00519039
-0.00467412
-0.000937121
-0.00438387
-0.00374436
-0.00300666
-0.00316249
-0.00423799
-0.0057936
-0.00745456
-0.00893433
-0.0101429
-0.0109994
-0.0114639
-0.0114951
-0.0110798
-0.0102073
-0.00889721
-0.00717838
-0.00520255
-0.00312181
-0.00153343
0.0042754
-0.00382641
-0.00289084
-0.00183458
-0.00178981
-0.00275862
-0.00434623
-0.00612506
-0.00778838
-0.00915635
-0.0101519
-0.0107112
-0.0108103
-0.0104085
-0.00949971
-0.008096
-0.00619114
-0.00379565
-0.000661524
0.0046182
0.0171187
-0.00520008
-0.00203617
-0.000794848
-0.000880278
-0.00179225
-0.00339031
-0.00524415
-0.00707069
-0.00857621
-0.00968382
-0.0103251
-0.0104966
-0.0101633
-0.00931228
-0.00787938
-0.0057675
-0.00218832
0.00479504
0.0188406
0.0414938
)
;

boundaryField
{
    movingWall
    {
        type            zeroGradient;
    }
    fixedWalls
    {
        type            zeroGradient;
    }
    frontAndBack
    {
        type            empty;
    }
}


// ************************************************************************* //
