/*--------------------------------*- C++ -*----------------------------------*\
| =========                 |                                                 |
| \\      /  F ield         | OpenFOAM: The Open Source CFD Toolbox           |
|  \\    /   O peration     | Version:  5.0                                   |
|   \\  /    A nd           | Web:      www.OpenFOAM.org                      |
|    \\/     M anipulation  |                                                 |
\*---------------------------------------------------------------------------*/
FoamFile
{
    version     2.0;
    format      ascii;
    class       surfaceScalarField;
    location    "7.5";
    object      phi;
}
// * * * * * * * * * * * * * * * * * * * * * * * * * * * * * * * * * * * * * //

dimensions      [0 3 -1 0 0 0 0];

internalField   nonuniform List<scalar> 
760
(
2.57004e-07
-2.57011e-07
1.38713e-07
1.1829e-07
-5.49259e-07
6.87972e-07
-2.03112e-06
1.48186e-06
-3.79748e-06
1.76636e-06
-5.29623e-06
1.49874e-06
-6.563e-06
1.26677e-06
-7.47378e-06
9.10785e-07
-8.18376e-06
7.09977e-07
-8.65238e-06
4.68625e-07
-8.97161e-06
3.19222e-07
-9.07443e-06
1.02824e-07
-9.01281e-06
-6.16208e-08
-8.71551e-06
-2.97305e-07
-8.20473e-06
-5.10776e-07
-7.30434e-06
-9.00391e-07
-5.96425e-06
-1.34009e-06
-3.99456e-06
-1.96968e-06
-1.65608e-06
-2.33849e-06
-1.65608e-06
-2.95374e-07
3.83624e-08
-1.27533e-06
1.09825e-06
-2.9496e-06
2.36224e-06
-4.58977e-06
3.12203e-06
-5.75068e-06
2.92727e-06
-6.79736e-06
2.54543e-06
-7.55646e-06
2.02587e-06
-8.21088e-06
1.5652e-06
-8.64503e-06
1.14413e-06
-8.92869e-06
7.52284e-07
-9.02578e-06
4.16313e-07
-8.97055e-06
4.75929e-08
-8.78577e-06
-2.46406e-07
-8.4789e-06
-6.04167e-07
-7.95259e-06
-1.03709e-06
-7.22321e-06
-1.62977e-06
-6.1208e-06
-2.44251e-06
-4.52969e-06
-3.56079e-06
-2.32116e-06
-4.54702e-06
-3.97723e-06
-9.94162e-07
1.03252e-06
-2.51071e-06
2.61479e-06
-3.98901e-06
3.84055e-06
-5.08326e-06
4.21627e-06
-5.91018e-06
3.75419e-06
-6.53185e-06
3.1671e-06
-6.87898e-06
2.37299e-06
-7.07462e-06
1.76084e-06
-7.05513e-06
1.12464e-06
-6.99995e-06
6.97098e-07
-6.89116e-06
3.07526e-07
-6.84462e-06
1.05238e-09
-6.66794e-06
-4.23086e-07
-6.41127e-06
-8.60838e-07
-6.00937e-06
-1.43898e-06
-5.48429e-06
-2.15486e-06
-4.82002e-06
-3.10677e-06
-3.84371e-06
-4.53709e-06
-2.27813e-06
-6.1126e-06
-6.25537e-06
-1.33315e-06
2.36568e-06
-2.84727e-06
4.12891e-06
-4.01556e-06
5.00883e-06
-4.74007e-06
4.94078e-06
-5.14528e-06
4.15941e-06
-5.19566e-06
3.21749e-06
-5.07255e-06
2.24988e-06
-4.94906e-06
1.63735e-06
-4.91476e-06
1.09034e-06
-4.93017e-06
7.12512e-07
-4.93672e-06
3.14072e-07
-4.89502e-06
-4.06485e-08
-4.81711e-06
-5.00989e-07
-4.65557e-06
-1.02239e-06
-4.36784e-06
-1.72671e-06
-3.95408e-06
-2.56862e-06
-3.45127e-06
-3.60959e-06
-2.79872e-06
-5.18964e-06
-1.75325e-06
-7.15808e-06
-8.00862e-06
-1.34519e-06
3.71087e-06
-2.5596e-06
5.34331e-06
-3.32914e-06
5.77837e-06
-3.70654e-06
5.31819e-06
-3.71653e-06
4.1694e-06
-3.55999e-06
3.06094e-06
-3.44617e-06
2.13607e-06
-3.42335e-06
1.61453e-06
-3.45331e-06
1.1203e-06
-3.51344e-06
7.72647e-07
-3.55737e-06
3.58003e-07
-3.56901e-06
-2.90111e-08
-3.51319e-06
-5.56815e-07
-3.39891e-06
-1.13666e-06
-3.22016e-06
-1.90546e-06
-2.89927e-06
-2.8895e-06
-2.51893e-06
-3.98993e-06
-2.13672e-06
-5.57185e-06
-1.37657e-06
-7.91823e-06
-9.38518e-06
-1.08408e-06
4.79495e-06
-1.92338e-06
6.18262e-06
-2.43776e-06
6.29275e-06
-2.6107e-06
5.49114e-06
-2.54164e-06
4.10034e-06
-2.4078e-06
2.9271e-06
-2.40762e-06
2.13588e-06
-2.45424e-06
1.66115e-06
-2.51817e-06
1.18423e-06
-2.56398e-06
8.18457e-07
-2.58926e-06
3.83288e-07
-2.57889e-06
-3.93875e-08
-2.54088e-06
-5.94826e-07
-2.44048e-06
-1.23706e-06
-2.2946e-06
-2.05134e-06
-2.05611e-06
-3.12799e-06
-1.71836e-06
-4.32767e-06
-1.39494e-06
-5.89527e-06
-1.03547e-06
-8.2777e-06
-1.04207e-05
-7.42187e-07
5.53714e-06
-1.30388e-06
6.74432e-06
-1.64468e-06
6.63354e-06
-1.71485e-06
5.56131e-06
-1.66326e-06
4.04875e-06
-1.66057e-06
2.92442e-06
-1.75719e-06
2.2325e-06
-1.84003e-06
1.74399e-06
-1.90194e-06
1.24613e-06
-1.91542e-06
8.31939e-07
-1.90268e-06
3.70548e-07
-1.86576e-06
-7.63064e-08
-1.82171e-06
-6.38877e-07
-1.73986e-06
-1.3189e-06
-1.62197e-06
-2.16923e-06
-1.46725e-06
-3.28271e-06
-1.23643e-06
-4.55849e-06
-9.98101e-07
-6.1336e-06
-7.61613e-07
-8.51419e-06
-1.11823e-05
-4.11737e-07
5.94887e-06
-7.56489e-07
7.08907e-06
-9.63768e-07
6.84082e-06
-1.03518e-06
5.63272e-06
-1.04559e-06
4.05916e-06
-1.13905e-06
3.01788e-06
-1.28603e-06
2.37947e-06
-1.38868e-06
1.84665e-06
-1.44755e-06
1.305e-06
-1.44171e-06
8.26099e-07
-1.40121e-06
3.3004e-07
-1.33102e-06
-1.46495e-07
-1.27234e-06
-6.97559e-07
-1.19532e-06
-1.39592e-06
-1.08421e-06
-2.28034e-06
-9.6569e-07
-3.40123e-06
-7.76124e-07
-4.74806e-06
-6.18609e-07
-6.29111e-06
-5.58868e-07
-8.57393e-06
-1.17411e-05
-1.47298e-07
6.09617e-06
-3.21516e-07
7.26329e-06
-4.28506e-07
6.94781e-06
-4.89015e-07
5.69323e-06
-5.5907e-07
4.12922e-06
-7.03461e-07
3.16227e-06
-8.66574e-07
2.54259e-06
-9.87038e-07
1.96712e-06
-1.0572e-06
1.37517e-06
-1.05805e-06
8.26941e-07
-1.01705e-06
2.89043e-07
-9.33369e-07
-2.30174e-07
-8.50015e-07
-7.80913e-07
-7.75951e-07
-1.46998e-06
-6.85695e-07
-2.3706e-06
-6.02293e-07
-3.48463e-06
-5.27698e-07
-4.82265e-06
-4.39826e-07
-6.37898e-06
-4.00513e-07
-8.61324e-06
-1.21417e-05
9.86484e-08
5.99752e-06
7.3408e-08
7.28853e-06
4.2892e-08
6.97833e-06
2.22671e-08
5.71385e-06
-9.35826e-08
4.24507e-06
-2.72439e-07
3.34113e-06
-4.31998e-07
2.70215e-06
-5.52424e-07
2.08754e-06
-6.32358e-07
1.4551e-06
-6.52794e-07
8.47377e-07
-6.26275e-07
2.62524e-07
-5.52577e-07
-3.03872e-07
-4.57637e-07
-8.75852e-07
-3.85237e-07
-1.54238e-06
-3.08882e-07
-2.44695e-06
-2.65753e-07
-3.52776e-06
-2.12136e-07
-4.87627e-06
-2.0885e-07
-6.38227e-06
-3.09676e-07
-8.51241e-06
-1.24513e-05
3.26607e-07
5.67092e-06
4.64384e-07
7.15075e-06
5.31083e-07
6.91163e-06
4.60531e-07
5.7844e-06
3.46681e-07
4.35892e-06
2.01844e-07
3.48596e-06
7.4752e-08
2.82924e-06
-3.04356e-08
2.19273e-06
-1.12923e-07
1.53759e-06
-1.64663e-07
8.99118e-07
-1.68731e-07
2.66592e-07
-1.36483e-07
-3.3612e-07
-5.46867e-08
-9.57648e-07
-2.35057e-08
-1.57356e-06
5.84363e-08
-2.52889e-06
-2.27341e-08
-3.44659e-06
3.42439e-08
-4.93325e-06
-1.01899e-07
-6.24613e-06
-2.18053e-07
-8.39626e-06
-1.26694e-05
5.30146e-07
5.14077e-06
8.50632e-07
6.83026e-06
1.0231e-06
6.73916e-06
9.63763e-07
5.84374e-06
8.56368e-07
4.46631e-06
7.61498e-07
3.58083e-06
6.81579e-07
2.90916e-06
6.0678e-07
2.26753e-06
5.30605e-07
1.61377e-06
4.68637e-07
9.61085e-07
4.32516e-07
3.02713e-07
4.20453e-07
-3.24057e-07
4.23656e-07
-9.60851e-07
4.56353e-07
-1.60626e-06
4.25409e-07
-2.49795e-06
3.7553e-07
-3.39671e-06
2.78862e-07
-4.83658e-06
4.52853e-08
-6.01255e-06
-1.45736e-07
-8.20524e-06
-1.28151e-05
7.79934e-07
4.36084e-06
1.20994e-06
6.40025e-06
1.48333e-06
6.46578e-06
1.49466e-06
5.83241e-06
1.41628e-06
4.54469e-06
1.38012e-06
3.61699e-06
1.36477e-06
2.92451e-06
1.3415e-06
2.2908e-06
1.30137e-06
1.65389e-06
1.24575e-06
1.01671e-06
1.1747e-06
3.7376e-07
1.10856e-06
-2.57921e-07
1.03743e-06
-8.89721e-07
9.97274e-07
-1.5661e-06
8.71283e-07
-2.37196e-06
7.61954e-07
-3.28739e-06
5.19233e-07
-4.59386e-06
2.08795e-07
-5.70211e-06
-5.4716e-09
-7.99097e-06
-1.28206e-05
9.8649e-07
3.37435e-06
1.60247e-06
5.78427e-06
1.97444e-06
6.09381e-06
2.12113e-06
5.68572e-06
2.05914e-06
4.60668e-06
2.0601e-06
3.61602e-06
2.10023e-06
2.88439e-06
2.13775e-06
2.25328e-06
2.14568e-06
1.64597e-06
2.11531e-06
1.04707e-06
2.03829e-06
4.50789e-07
1.93455e-06
-1.54184e-07
1.80486e-06
-7.60032e-07
1.67169e-06
-1.43293e-06
1.46804e-06
-2.16831e-06
1.26683e-06
-3.08617e-06
9.02077e-07
-4.22911e-06
4.76985e-07
-5.27702e-06
1.10045e-07
-7.62403e-06
-1.27105e-05
1.1868e-06
2.18755e-06
1.88439e-06
5.08669e-06
2.36757e-06
5.61062e-06
2.69237e-06
5.36092e-06
2.78173e-06
4.51732e-06
2.83875e-06
3.559e-06
2.91503e-06
2.80811e-06
2.99558e-06
2.17272e-06
3.03879e-06
1.60276e-06
3.03821e-06
1.04765e-06
2.97633e-06
5.12665e-07
2.85418e-06
-3.20354e-08
2.67455e-06
-5.80397e-07
2.45141e-06
-1.2098e-06
2.16415e-06
-1.88104e-06
1.82732e-06
-2.74935e-06
1.30234e-06
-3.70413e-06
6.89825e-07
-4.6645e-06
2.59216e-07
-7.19343e-06
-1.24513e-05
1.21297e-06
9.7458e-07
2.03026e-06
4.2694e-06
2.6606e-06
4.98029e-06
3.20863e-06
4.81289e-06
3.50892e-06
4.21703e-06
3.67187e-06
3.39604e-06
3.80565e-06
2.67434e-06
3.92081e-06
2.05756e-06
3.98946e-06
1.5341e-06
4.00799e-06
1.02912e-06
3.94854e-06
5.72123e-07
3.83712e-06
7.93816e-08
3.62418e-06
-3.6746e-07
3.34921e-06
-9.34832e-07
2.97543e-06
-1.50725e-06
2.49348e-06
-2.2674e-06
1.82565e-06
-3.0363e-06
1.05391e-06
-3.89276e-06
4.95309e-07
-6.63482e-06
-1.1956e-05
6.84762e-07
2.89818e-07
1.76174e-06
3.19242e-06
2.72383e-06
4.01819e-06
3.53945e-06
3.99727e-06
4.14172e-06
3.61476e-06
4.53939e-06
2.99838e-06
4.80788e-06
2.40585e-06
5.00286e-06
1.86258e-06
5.11821e-06
1.41875e-06
5.1726e-06
9.74731e-07
5.13151e-06
6.13211e-07
4.99528e-06
2.15616e-07
4.75616e-06
-1.28341e-07
4.41814e-06
-5.96816e-07
3.92465e-06
-1.01377e-06
3.26021e-06
-1.60296e-06
2.363e-06
-2.13909e-06
1.4046e-06
-2.93436e-06
8.14754e-07
-6.04498e-06
-1.11413e-05
-1.80144e-07
4.69962e-07
1.10455e-06
1.90772e-06
2.30896e-06
2.81379e-06
3.44502e-06
2.86121e-06
4.38042e-06
2.67935e-06
5.10891e-06
2.26989e-06
5.6267e-06
1.88806e-06
6.02115e-06
1.46813e-06
6.25131e-06
1.1886e-06
6.37928e-06
8.46761e-07
6.35478e-06
6.37708e-07
6.24532e-06
3.25075e-07
5.972e-06
1.44981e-07
5.55721e-06
-1.82027e-07
4.92692e-06
-3.83478e-07
4.11826e-06
-7.94294e-07
2.99629e-06
-1.01712e-06
2.06277e-06
-2.00084e-06
1.37567e-06
-5.35788e-06
-9.76559e-06
-1.15132e-06
1.62128e-06
-1.83666e-07
9.40065e-07
1.33067e-06
1.29945e-06
2.7843e-06
1.40758e-06
4.03256e-06
1.43109e-06
5.04521e-06
1.25724e-06
5.81104e-06
1.12223e-06
6.38284e-06
8.96334e-07
6.77989e-06
7.91543e-07
7.01118e-06
6.15466e-07
7.10121e-06
5.47678e-07
7.02635e-06
3.99939e-07
6.81911e-06
3.52225e-07
6.43067e-06
2.06404e-07
5.89288e-06
1.54318e-07
5.15965e-06
-6.1071e-08
4.40668e-06
-2.64148e-07
3.77894e-06
-1.37311e-06
2.5902e-06
-4.16913e-06
-7.17539e-06
1.62128e-06
2.56135e-06
3.8608e-06
5.26838e-06
6.69947e-06
7.95671e-06
9.07895e-06
9.97528e-06
1.07668e-05
1.13823e-05
1.193e-05
1.23299e-05
1.26821e-05
1.28885e-05
1.30429e-05
1.29818e-05
1.27176e-05
1.13445e-05
7.17539e-06
)
;

boundaryField
{
    movingWall
    {
        type            calculated;
        value           uniform 0;
    }
    fixedWalls
    {
        type            calculated;
        value           uniform 0;
    }
    frontAndBack
    {
        type            empty;
        value           nonuniform 0();
    }
}


// ************************************************************************* //
