/*--------------------------------*- C++ -*----------------------------------*\
| =========                 |                                                 |
| \\      /  F ield         | OpenFOAM: The Open Source CFD Toolbox           |
|  \\    /   O peration     | Version:  5.0                                   |
|   \\  /    A nd           | Web:      www.OpenFOAM.org                      |
|    \\/     M anipulation  |                                                 |
\*---------------------------------------------------------------------------*/
FoamFile
{
    version     2.0;
    format      ascii;
    class       volVectorField;
    location    "7.5";
    object      U;
}
// * * * * * * * * * * * * * * * * * * * * * * * * * * * * * * * * * * * * * //

dimensions      [0 1 -1 0 0 0 0];

internalField   nonuniform List<vector> 
400
(
(0.00230797 -0.00396995 0)
(0.0077826 -0.00224281 0)
(-0.00316383 0.00134104 0)
(-0.0156014 0.00895816 0)
(-0.0629804 0.0195282 0)
(-0.0949291 0.014499 0)
(-0.123515 0.0143444 0)
(-0.142599 0.0110659 0)
(-0.158845 0.00980445 0)
(-0.169462 0.007329 0)
(-0.177773 0.00609782 0)
(-0.181598 0.00394865 0)
(-0.183013 0.00252902 0)
(-0.179871 -0.00131715 0)
(-0.170144 -0.00341054 0)
(-0.154609 -0.00922698 0)
(-0.129696 -0.0138681 0)
(-0.0969129 -0.0202408 0)
(-0.0578412 -0.0189511 0)
(-0.0114529 -0.00547203 0)
(-0.000861064 -0.00710212 0)
(-0.0104748 0.00759564 0)
(-0.0380884 0.0290178 0)
(-0.0772059 0.049276 0)
(-0.10786 0.0468471 0)
(-0.128674 0.0411909 0)
(-0.146002 0.0340083 0)
(-0.159567 0.0240161 0)
(-0.169769 0.0177434 0)
(-0.176729 0.0105134 0)
(-0.180978 0.00568737 0)
(-0.182224 -0.000547271 0)
(-0.180287 -0.0057292 0)
(-0.175372 -0.0127299 0)
(-0.166068 -0.0203482 0)
(-0.151885 -0.0317461 0)
(-0.131216 -0.0459238 0)
(-0.103055 -0.0653443 0)
(-0.0704352 -0.0786502 0)
(-0.0172397 -0.0562011 0)
(-0.00721128 0.00928574 0)
(-0.0320441 0.0387671 0)
(-0.0660324 0.0636073 0)
(-0.0950892 0.0735245 0)
(-0.113541 0.0664323 0)
(-0.126199 0.0568136 0)
(-0.136853 0.0426769 0)
(-0.141052 0.0335239 0)
(-0.141006 0.0233193 0)
(-0.140474 0.0157697 0)
(-0.139383 0.00816796 0)
(-0.13855 0.00151006 0)
(-0.136802 -0.00597426 0)
(-0.132534 -0.0140394 0)
(-0.125977 -0.0247431 0)
(-0.116643 -0.0387402 0)
(-0.102719 -0.0593097 0)
(-0.082379 -0.0868233 0)
(-0.0627883 -0.114113 0)
(-0.0209755 -0.112658 0)
(-0.0108278 0.0344237 0)
(-0.0428551 0.0687108 0)
(-0.0731696 0.0894024 0)
(-0.0922234 0.0905714 0)
(-0.102289 0.0781878 0)
(-0.106514 0.0637456 0)
(-0.103134 0.0472269 0)
(-0.0982275 0.0339904 0)
(-0.0976736 0.0220626 0)
(-0.0979235 0.0136697 0)
(-0.0987975 0.0055328 0)
(-0.0994912 -0.00126509 0)
(-0.0984101 -0.00951358 0)
(-0.0962044 -0.0188056 0)
(-0.0910403 -0.0310756 0)
(-0.0851018 -0.0460345 0)
(-0.0760861 -0.0668185 0)
(-0.057365 -0.0996053 0)
(-0.0478399 -0.136759 0)
(-0.0159498 -0.146528 0)
(-0.011169 0.0597919 0)
(-0.0435102 0.0943468 0)
(-0.0632417 0.106372 0)
(-0.0753457 0.101389 0)
(-0.0766558 0.0838789 0)
(-0.0727489 0.0647773 0)
(-0.0677202 0.0453784 0)
(-0.0679417 0.0339079 0)
(-0.0678155 0.023137 0)
(-0.0696238 0.0157208 0)
(-0.0705558 0.00719143 0)
(-0.0722314 -0.000582509 0)
(-0.0717906 -0.0107366 0)
(-0.0705342 -0.0220113 0)
(-0.0660999 -0.0370647 0)
(-0.0613006 -0.054754 0)
(-0.0577597 -0.0751804 0)
(-0.0395017 -0.107321 0)
(-0.0421517 -0.154482 0)
(-0.00645572 -0.178546 0)
(-0.00965534 0.0837372 0)
(-0.0350395 0.114345 0)
(-0.0465553 0.120083 0)
(-0.0555493 0.108869 0)
(-0.0515035 0.0848985 0)
(-0.0476786 0.0610659 0)
(-0.0463767 0.043333 0)
(-0.0488765 0.0332265 0)
(-0.0490231 0.0234541 0)
(-0.0511016 0.0163612 0)
(-0.0510882 0.00778315 0)
(-0.0523662 -0.000453044 0)
(-0.0516958 -0.0112118 0)
(-0.0512271 -0.0234525 0)
(-0.0477131 -0.0395175 0)
(-0.0417696 -0.0602438 0)
(-0.0430135 -0.0824728 0)
(-0.0228291 -0.112824 0)
(-0.0323753 -0.161132 0)
(-0.00338512 -0.198251 0)
(-0.00695593 0.102898 0)
(-0.0241526 0.128281 0)
(-0.0321201 0.128677 0)
(-0.0376433 0.11064 0)
(-0.0320914 0.0815342 0)
(-0.0316664 0.0584605 0)
(-0.0336556 0.0435361 0)
(-0.0366239 0.0338741 0)
(-0.0370416 0.0242682 0)
(-0.0384467 0.0166122 0)
(-0.0376889 0.00775325 0)
(-0.0381508 -0.000998925 0)
(-0.036993 -0.0123837 0)
(-0.0363315 -0.0256417 0)
(-0.0349817 -0.0422434 0)
(-0.0275915 -0.0643844 0)
(-0.0331417 -0.0889358 0)
(-0.0138022 -0.120932 0)
(-0.0280167 -0.168428 0)
(0.0021879 -0.217004 0)
(-0.00346199 0.114734 0)
(-0.0141488 0.13817 0)
(-0.019029 0.135043 0)
(-0.022584 0.112648 0)
(-0.0181572 0.0820933 0)
(-0.0213361 0.059585 0)
(-0.0245415 0.045927 0)
(-0.0273894 0.0356128 0)
(-0.0282228 0.025296 0)
(-0.0290889 0.0165201 0)
(-0.0279934 0.00716595 0)
(-0.0276216 -0.00192171 0)
(-0.026042 -0.0130637 0)
(-0.0243521 -0.0269607 0)
(-0.0252298 -0.044139 0)
(-0.0159781 -0.0667244 0)
(-0.0245479 -0.0918745 0)
(-0.00422897 -0.122942 0)
(-0.02244 -0.169802 0)
(0.00367736 -0.2283 0)
(-0.000446853 0.121709 0)
(-0.00615557 0.143915 0)
(-0.00843504 0.137832 0)
(-0.0107938 0.112517 0)
(-0.00780429 0.080233 0)
(-0.0128933 0.0604507 0)
(-0.0160395 0.0482625 0)
(-0.0191376 0.0373852 0)
(-0.0204565 0.0262555 0)
(-0.0212964 0.0160957 0)
(-0.0204406 0.00587305 0)
(-0.0196506 -0.00403043 0)
(-0.018163 -0.0150304 0)
(-0.0149519 -0.0290376 0)
(-0.0178127 -0.0468555 0)
(-0.00745769 -0.0694555 0)
(-0.0188446 -0.0966186 0)
(0.000387905 -0.127919 0)
(-0.0203055 -0.172333 0)
(0.0072267 -0.239935 0)
(0.00258721 0.12192 0)
(0.000876889 0.146786 0)
(0.00130124 0.139885 0)
(-0.000219748 0.11417 0)
(0.00128882 0.0841131 0)
(-0.00430872 0.0652297 0)
(-0.00723837 0.0524521 0)
(-0.0104844 0.0403338 0)
(-0.0119097 0.0279276 0)
(-0.0129694 0.0163562 0)
(-0.0126829 0.00535527 0)
(-0.0117222 -0.00551649 0)
(-0.0109374 -0.0166664 0)
(-0.00640605 -0.0301627 0)
(-0.010529 -0.0484719 0)
(0.000106937 -0.0695481 0)
(-0.0129203 -0.0974951 0)
(0.00686184 -0.126394 0)
(-0.0175928 -0.171769 0)
(0.00804988 -0.246255 0)
(0.00542187 0.118492 0)
(0.00698585 0.145777 0)
(0.00982625 0.139278 0)
(0.00927167 0.11423 0)
(0.0100427 0.0843478 0)
(0.00489074 0.0669125 0)
(0.00278478 0.0543205 0)
(3.27577e-05 0.0419186 0)
(-0.00142885 0.0290943 0)
(-0.00290059 0.0166623 0)
(-0.00354052 0.00466504 0)
(-0.00275124 -0.00711556 0)
(-0.00310617 -0.0190751 0)
(0.0013721 -0.0317092 0)
(-0.00276935 -0.0506924 0)
(0.00610198 -0.0703485 0)
(-0.00780824 -0.100366 0)
(0.0104181 -0.127468 0)
(-0.0167043 -0.170788 0)
(0.0109015 -0.252521 0)
(0.00682955 0.109628 0)
(0.0133529 0.141892 0)
(0.0185954 0.138143 0)
(0.0194836 0.116834 0)
(0.0201225 0.0891789 0)
(0.0155833 0.0712775 0)
(0.0142468 0.0578995 0)
(0.0123842 0.045027 0)
(0.0113322 0.0317781 0)
(0.0101049 0.0185966 0)
(0.0088486 0.00555923 0)
(0.00909453 -0.00693973 0)
(0.00747815 -0.0198307 0)
(0.0103475 -0.0323686 0)
(0.0063659 -0.0507432 0)
(0.0129785 -0.0692187 0)
(-0.00101688 -0.0974976 0)
(0.0159215 -0.122425 0)
(-0.0158069 -0.166962 0)
(0.0127773 -0.255192 0)
(0.0100025 0.0994274 0)
(0.0194677 0.134429 0)
(0.026777 0.133003 0)
(0.0293333 0.116764 0)
(0.0308442 0.0884701 0)
(0.0274862 0.0711271 0)
(0.027191 0.0579841 0)
(0.0265733 0.0453164 0)
(0.0262202 0.032273 0)
(0.0259799 0.0192085 0)
(0.0241457 0.006105 0)
(0.023923 -0.00650779 0)
(0.0205891 -0.0193533 0)
(0.0218014 -0.0327908 0)
(0.0166496 -0.0496912 0)
(0.0205354 -0.0684225 0)
(0.00639924 -0.0955739 0)
(0.0193752 -0.119251 0)
(-0.0149199 -0.161869 0)
(0.0164189 -0.256338 0)
(0.0113491 0.0785316 0)
(0.0257524 0.124986 0)
(0.0362425 0.127288 0)
(0.0399422 0.117583 0)
(0.0431068 0.0926772 0)
(0.040913 0.0729927 0)
(0.0411407 0.0590825 0)
(0.0419453 0.0466894 0)
(0.0423782 0.0342278 0)
(0.0435346 0.0217349 0)
(0.0414304 0.00894871 0)
(0.0413153 -0.00372095 0)
(0.0366119 -0.0162935 0)
(0.0362493 -0.0301328 0)
(0.029609 -0.0457516 0)
(0.0307419 -0.0640011 0)
(0.016769 -0.087344 0)
(0.0254671 -0.109127 0)
(-0.0124382 -0.155772 0)
(0.0198455 -0.254552 0)
(0.0147724 0.0609467 0)
(0.0299077 0.110191 0)
(0.0437585 0.11743 0)
(0.049461 0.11069 0)
(0.0551182 0.0915986 0)
(0.0558572 0.0709627 0)
(0.0568207 0.0559193 0)
(0.0588743 0.0437381 0)
(0.0595808 0.03238 0)
(0.061975 0.0210478 0)
(0.0599057 0.00977228 0)
(0.0601783 -0.00204075 0)
(0.0545856 -0.0134762 0)
(0.0528472 -0.0265227 0)
(0.0444594 -0.0405751 0)
(0.0428153 -0.0582714 0)
(0.0284796 -0.0796941 0)
(0.0304109 -0.10032 0)
(-0.010246 -0.147985 0)
(0.0256173 -0.252656 0)
(0.0135408 0.0254668 0)
(0.0336294 0.0955972 0)
(0.048929 0.108292 0)
(0.0581789 0.104912 0)
(0.0663692 0.0910149 0)
(0.0711457 0.0720755 0)
(0.0736525 0.0558289 0)
(0.0774273 0.0426584 0)
(0.0779345 0.0315067 0)
(0.0813057 0.0209584 0)
(0.0791125 0.0112417 0)
(0.0798469 0.00102245 0)
(0.073946 -0.00878486 0)
(0.0715565 -0.020472 0)
(0.0620221 -0.0328381 0)
(0.0582579 -0.0493037 0)
(0.0426455 -0.0665469 0)
(0.0377138 -0.0843487 0)
(-0.00479956 -0.138676 0)
(0.0320482 -0.248918 0)
(0.00149267 0.0103702 0)
(0.027321 0.0699031 0)
(0.0473924 0.0896891 0)
(0.0618048 0.0897281 0)
(0.0753292 0.0806606 0)
(0.0861026 0.066635 0)
(0.0917514 0.0529442 0)
(0.0986354 0.0403143 0)
(0.0998704 0.0296473 0)
(0.104154 0.0195191 0)
(0.102295 0.0109103 0)
(0.103294 0.00180369 0)
(0.0972046 -0.00639644 0)
(0.0939193 -0.0162908 0)
(0.0832201 -0.0259355 0)
(0.0758623 -0.0390184 0)
(0.057588 -0.0518008 0)
(0.0441161 -0.0698824 0)
(0.00131419 -0.132434 0)
(0.0417004 -0.245332 0)
(-0.0184893 8.46595e-05 0)
(0.0126315 0.0567679 0)
(0.0359929 0.0742551 0)
(0.0572683 0.0750399 0)
(0.0759324 0.0687731 0)
(0.0947692 0.0578062 0)
(0.105351 0.0474375 0)
(0.117299 0.0379733 0)
(0.121174 0.0302512 0)
(0.127544 0.0220482 0)
(0.126627 0.0156806 0)
(0.12799 0.00811147 0)
(0.121814 0.0022607 0)
(0.117856 -0.00552951 0)
(0.105113 -0.0119407 0)
(0.094936 -0.0216438 0)
(0.0727675 -0.0306606 0)
(0.0524363 -0.0505359 0)
(0.0167393 -0.124017 0)
(0.0545599 -0.233224 0)
(-0.0253647 0.0232 0)
(-0.0169309 0.0219266 0)
(0.0115491 0.0388075 0)
(0.04192 0.0414152 0)
(0.0660637 0.0405226 0)
(0.0912155 0.0351159 0)
(0.106941 0.0303152 0)
(0.12249 0.0228534 0)
(0.130946 0.0192394 0)
(0.13855 0.0133662 0)
(0.141328 0.0110765 0)
(0.142207 0.0056289 0)
(0.13886 0.00411083 0)
(0.134214 -0.000968209 0)
(0.122705 -0.00228671 0)
(0.112862 -0.00896601 0)
(0.089609 -0.0130427 0)
(0.0769278 -0.0390342 0)
(0.0559596 -0.111877 0)
(0.0789264 -0.183091 0)
(0.0358649 0.0324396 0)
(0.0404678 0.0190988 0)
(0.0582314 0.0173519 0)
(0.0918019 0.0178026 0)
(0.11687 0.0196663 0)
(0.145955 0.0180478 0)
(0.168115 0.0172683 0)
(0.19025 0.0150017 0)
(0.206799 0.0138562 0)
(0.222002 0.0121322 0)
(0.233316 0.011127 0)
(0.243 0.00985059 0)
(0.250282 0.00898913 0)
(0.255171 0.00811401 0)
(0.259395 0.00747668 0)
(0.259333 0.0061087 0)
(0.254528 0.00505986 0)
(0.241044 -0.00210716 0)
(0.20192 -0.0141703 0)
(0.148657 -0.0337168 0)
)
;

boundaryField
{
    movingWall
    {
        type            fixedValue;
        value           uniform (1 0 0);
    }
    fixedWalls
    {
        type            noSlip;
    }
    frontAndBack
    {
        type            empty;
    }
}


// ************************************************************************* //
