/*--------------------------------*- C++ -*----------------------------------*\
| =========                 |                                                 |
| \\      /  F ield         | OpenFOAM: The Open Source CFD Toolbox           |
|  \\    /   O peration     | Version:  5.0                                   |
|   \\  /    A nd           | Web:      www.OpenFOAM.org                      |
|    \\/     M anipulation  |                                                 |
\*---------------------------------------------------------------------------*/
FoamFile
{
    version     2.0;
    format      ascii;
    class       volScalarField;
    location    "7.5";
    object      yPlus;
}
// * * * * * * * * * * * * * * * * * * * * * * * * * * * * * * * * * * * * * //

dimensions      [0 0 0 0 0 0 0];

internalField   uniform 0;

boundaryField
{
    movingWall
    {
        type            calculated;
        value           nonuniform List<scalar> 
20
(
15.5297
15.4897
15.3454
15.0696
14.8606
14.6137
14.4228
14.2293
14.083
13.9472
13.8453
13.7574
13.691
13.6462
13.6074
13.6078
13.6518
13.7746
14.1263
14.5946
)
;
    }
    fixedWalls
    {
        type            calculated;
        value           nonuniform List<scalar> 
60
(
1.07146
1.33736
1.71443
3.0036
3.89956
4.59053
5.07772
5.35692
5.51611
5.52149
5.44555
5.24024
4.99823
4.45386
3.95953
2.68528
1.61842
2.14997
2.93149
3.47704
1.78136
3.8336
5.35243
6.07029
6.68324
7.04059
7.36571
7.55529
7.74667
7.84835
7.94915
7.99237
8.01348
7.98944
7.96793
7.92106
7.8875
7.73823
7.06007
6.17318
1.07146
1.42297
0.926864
2.12075
4.06013
4.89974
5.57551
5.97971
6.30768
6.51192
6.66854
6.73871
6.76444
6.70589
6.52262
6.22262
5.71041
4.97504
3.90085
1.78136
)
;
    }
    frontAndBack
    {
        type            empty;
    }
}


// ************************************************************************* //
