/*--------------------------------*- C++ -*----------------------------------*\
  =========                 |
  \\      /  F ield         | OpenFOAM: The Open Source CFD Toolbox
   \\    /   O peration     | Website:  https://openfoam.org
    \\  /    A nd           | Version:  6
     \\/     M anipulation  |
\*---------------------------------------------------------------------------*/
FoamFile
{
    version     2.0;
    format      ascii;
    class       volScalarField;
    location    "0.6";
    object      p;
}
// * * * * * * * * * * * * * * * * * * * * * * * * * * * * * * * * * * * * * //

dimensions      [0 2 -2 0 0 0 0];

internalField   nonuniform List<scalar> 
400
(
-1.67622e-06
-0.00287984
-0.00826734
-0.0144948
-0.0195695
-0.0216369
-0.019115
-0.010859
0.00362005
0.0238416
0.00285953
-4.26614e-05
-0.00431462
-0.00896668
-0.0126856
-0.0140091
-0.0115865
-0.00438325
0.00809634
0.0255095
0.00834286
0.00414327
-0.000293853
-0.00438269
-0.00742092
-0.0083142
-0.00597378
0.000465061
0.0114454
0.0267094
0.0151066
0.00887535
0.00332993
-0.00107844
-0.00412198
-0.0049813
-0.00278236
0.00317228
0.0132481
0.027226
0.0215618
0.0130332
0.00591448
0.000707496
-0.00272746
-0.00377574
-0.0017242
0.00398271
0.013633
0.0270241
0.0261076
0.0151642
0.00620369
-8.36969e-05
-0.00411088
-0.0054089
-0.00337557
0.00243311
0.0122356
0.0258324
0.0269437
0.0134617
0.00247647
-0.00503415
-0.00969052
-0.0111241
-0.00880113
-0.00235923
0.00836397
0.0231689
0.0217663
0.00553234
-0.00763033
-0.0163706
-0.0214906
-0.0227048
-0.0195282
-0.0116639
0.00100688
0.0182968
0.0072945
-0.0120516
-0.0275402
-0.0373451
-0.0424719
-0.042747
-0.0377612
-0.0273038
-0.011299
0.0101122
-0.0215004
-0.0445426
-0.0624661
-0.072843
-0.0769919
-0.0749752
-0.0665796
-0.0517718
-0.0305421
-0.00291291
0.0469788
0.0677917
0.0829862
0.0917134
0.0943349
0.0920791
0.0867098
0.0802508
0.0747873
0.0719629
0.0454556
0.0633722
0.0764582
0.0840633
0.0865792
0.0851108
0.0811572
0.0763169
0.0719862
0.0691526
0.0442127
0.0599633
0.0715331
0.0783694
0.0808102
0.0797812
0.0765096
0.0722242
0.0677256
0.0636174
0.0432962
0.0578288
0.0685907
0.0750265
0.0773684
0.0763669
0.0730458
0.0683835
0.0627399
0.0566047
0.0424893
0.0565921
0.0671515
0.0735379
0.0758471
0.0746716
0.0708951
0.0653351
0.0580351
0.0495678
0.0416203
0.0562025
0.0673127
0.0741745
0.0767114
0.0753675
0.0709386
0.0641577
0.0548653
0.0438761
0.0404444
0.0566792
0.0693753
0.0775263
0.0808303
0.0795739
0.0745004
0.0663184
0.0547502
0.0409859
0.0385374
0.0579619
0.0736904
0.0843846
0.0894283
0.0888971
0.0834754
0.0738723
0.0597325
0.0427622
0.0352008
0.0598497
0.0806586
0.095834
0.104291
0.105754
0.100756
0.0899614
0.0729212
0.052049
0.0294076
0.0619582
0.0907379
0.113369
0.128058
0.133887
0.130979
0.119761
0.0995495
0.0737251
-0.0707438
-0.0983286
-0.118521
-0.128246
-0.129468
-0.122784
-0.108453
-0.086815
-0.0579806
-0.0217356
-0.143866
-0.176989
-0.198588
-0.205104
-0.199957
-0.184926
-0.161235
-0.129899
-0.0912125
-0.0445547
-0.243751
-0.283479
-0.304156
-0.302511
-0.285248
-0.256544
-0.219264
-0.175356
-0.125236
-0.0675749
-0.379503
-0.426429
-0.440377
-0.421205
-0.382582
-0.332789
-0.276876
-0.217648
-0.155225
-0.0870512
-0.570343
-0.620942
-0.613762
-0.56004
-0.486335
-0.406317
-0.326838
-0.250601
-0.176403
-0.0996525
-0.856872
-0.891531
-0.830115
-0.713555
-0.586786
-0.467316
-0.361234
-0.268689
-0.185352
-0.103613
-1.32
-1.27202
-1.09003
-0.870034
-0.670216
-0.504752
-0.37314
-0.268531
-0.181076
-0.0993623
-2.13993
-1.79918
-1.36961
-0.998973
-0.712751
-0.504083
-0.355891
-0.248428
-0.164456
-0.0889593
-3.775
-2.47515
-1.54651
-1.00357
-0.658775
-0.438632
-0.298861
-0.20547
-0.136
-0.0744244
-6.53311
-3.07666
-1.4245
-0.793362
-0.482264
-0.309193
-0.209922
-0.147373
-0.101348
-0.0589838
0.0204356
0.0639384
0.104265
0.138408
0.163578
0.177746
0.180108
0.170383
0.147211
0.115105
0.00916822
0.0657569
0.120648
0.170427
0.211164
0.239189
0.251961
0.247534
0.222797
0.183234
-0.00219301
0.0678607
0.13877
0.207341
0.268785
0.317494
0.348245
0.355813
0.333046
0.285372
-0.0112185
0.0712034
0.158124
0.247557
0.334717
0.4124
0.472071
0.503159
0.490228
0.435104
-0.0160173
0.0761081
0.177269
0.287881
0.404753
0.520615
0.624279
0.698382
0.712903
0.656668
-0.016185
0.0815374
0.193279
0.322991
0.471273
0.633982
0.800591
0.948629
1.02822
0.996322
-0.0131091
0.0850352
0.201894
0.345674
0.523251
0.738642
0.988896
1.2541
1.47048
1.54005
-0.00952436
0.0829336
0.197327
0.34572
0.542985
0.807415
1.15487
1.58759
2.07609
2.47314
-0.00838892
0.0709434
0.172255
0.308567
0.500054
0.780253
1.19616
1.82187
2.84574
4.25325
-0.0104452
0.0507984
0.130743
0.239081
0.393165
0.629034
1.01789
1.75236
3.52708
7.10589
)
;

boundaryField
{
    movingWall
    {
        type            zeroGradient;
    }
    fixedWalls
    {
        type            zeroGradient;
    }
    frontAndBack
    {
        type            empty;
    }
}


// ************************************************************************* //
