/*--------------------------------*- C++ -*----------------------------------*\
  =========                 |
  \\      /  F ield         | OpenFOAM: The Open Source CFD Toolbox
   \\    /   O peration     | Website:  https://openfoam.org
    \\  /    A nd           | Version:  6
     \\/     M anipulation  |
\*---------------------------------------------------------------------------*/
FoamFile
{
    version     2.0;
    format      ascii;
    class       surfaceScalarField;
    location    "0.6";
    object      phi;
}
// * * * * * * * * * * * * * * * * * * * * * * * * * * * * * * * * * * * * * //

dimensions      [0 3 -1 0 0 0 0];

internalField   nonuniform List<scalar> 
760
(
6.57948e-09
-6.57279e-09
4.25862e-09
2.32087e-09
-1.64288e-08
2.06875e-08
-5.7729e-08
4.13002e-08
-1.1776e-07
6.0031e-08
-1.91384e-07
7.36239e-08
-2.70515e-07
7.91309e-08
-3.44401e-07
7.38853e-08
-4.00036e-07
5.56355e-08
2.30283e-08
-4.23064e-07
-1.90674e-09
-4.66605e-09
-3.21403e-08
3.25544e-08
-1.06781e-07
9.53282e-08
-2.32188e-07
1.66707e-07
-4.05513e-07
2.33357e-07
-6.14642e-07
2.82752e-07
-8.38334e-07
3.02823e-07
-1.04688e-06
2.82434e-07
-1.20357e-06
2.12325e-07
8.72057e-08
-1.26775e-06
-1.991e-08
1.5244e-08
-9.52644e-08
1.07909e-07
-2.41509e-07
2.41573e-07
-4.65471e-07
3.90669e-07
-7.62243e-07
5.30128e-07
-1.11314e-06
6.33645e-07
-1.48472e-06
6.7441e-07
-1.82931e-06
6.27018e-07
-2.08724e-06
4.70258e-07
1.92225e-07
-2.19226e-06
-4.20043e-08
5.72483e-08
-1.74898e-07
2.40802e-07
-4.1023e-07
4.76905e-07
-7.51511e-07
7.31951e-07
-1.18898e-06
9.67596e-07
-1.69581e-06
1.14048e-06
-2.22589e-06
1.20449e-06
-2.71371e-06
1.11484e-06
-3.07722e-06
8.33766e-07
3.40014e-07
-3.22501e-06
-6.68945e-08
1.24143e-07
-2.68088e-07
4.41995e-07
-6.10333e-07
8.1915e-07
-1.09101e-06
1.21263e-06
-1.69228e-06
1.56886e-06
-2.37642e-06
1.82462e-06
-3.08277e-06
1.91084e-06
-3.72723e-06
1.7593e-06
-4.20532e-06
1.31185e-06
5.35263e-07
-4.40057e-06
-9.50359e-08
2.19179e-07
-3.76148e-07
7.23108e-07
-8.45327e-07
1.28833e-06
-1.49166e-06
1.85895e-06
-2.28585e-06
2.36306e-06
-3.17569e-06
2.71446e-06
-4.08309e-06
2.81825e-06
-4.90373e-06
2.57994e-06
-5.51026e-06
1.91839e-06
7.86057e-07
-5.76105e-06
-1.28003e-07
3.47182e-07
-5.04011e-07
1.09912e-06
-1.12486e-06
1.90918e-06
-1.96893e-06
2.70302e-06
-2.99156e-06
3.38568e-06
-4.12168e-06
3.84458e-06
-5.26022e-06
3.95679e-06
-6.28079e-06
3.60051e-06
-7.0332e-06
2.6708e-06
1.10404e-06
-7.35118e-06
-1.68434e-07
5.15616e-07
-6.60306e-07
1.59099e-06
-1.46519e-06
2.71406e-06
-2.54654e-06
3.78437e-06
-3.83878e-06
4.67793e-06
-5.24656e-06
5.25235e-06
-6.64608e-06
5.35631e-06
-7.88824e-06
4.84267e-06
-8.80241e-06
3.58496e-06
1.50295e-06
-9.20132e-06
-2.20253e-07
7.35868e-07
-8.57988e-07
2.22872e-06
-1.88974e-06
3.74581e-06
-3.25558e-06
5.15021e-06
-4.85982e-06
6.28217e-06
-6.57546e-06
6.968e-06
-8.25126e-06
7.03212e-06
-9.71874e-06
6.31014e-06
-1.07959e-05
4.66213e-06
1.99307e-06
-1.1286e-05
-2.89575e-07
1.02544e-06
-1.11675e-06
3.0559e-06
-2.43129e-06
5.06035e-06
-4.13222e-06
6.85114e-06
-6.07731e-06
8.22726e-06
-8.09825e-06
8.98893e-06
-1.00174e-05
8.95129e-06
-1.16603e-05
7.95305e-06
-1.28573e-05
5.85912e-06
-1.34305e-05
2.56622e-06
-4.03261e-07
-1.98025e-08
-3.48775e-07
-5.44857e-08
-2.73894e-07
-7.4881e-08
-1.92658e-07
-8.12365e-08
-1.17056e-07
-7.56029e-08
-5.59727e-08
-6.1083e-08
-1.46987e-08
-4.12738e-08
5.26791e-09
-1.99664e-08
6.8254e-09
-1.55735e-09
6.82542e-09
-1.2111e-06
-7.64555e-08
-1.05718e-06
-2.084e-07
-8.46472e-07
-2.85591e-07
-6.18024e-07
-3.09684e-07
-4.04339e-07
-2.89288e-07
-2.28461e-07
-2.36961e-07
-1.02868e-07
-1.66867e-07
-2.96224e-08
-9.32124e-08
-1.0744e-09
-3.01052e-08
5.75115e-09
-2.09857e-06
-1.70147e-07
-1.84503e-06
-4.61938e-07
-1.49755e-06
-6.33073e-07
-1.11908e-06
-6.88154e-07
-7.61346e-07
-6.47019e-07
-4.60483e-07
-5.37825e-07
-2.3586e-07
-3.9149e-07
-9.14186e-08
-2.37654e-07
-1.85488e-08
-1.02975e-07
-1.27975e-08
-3.09375e-06
-3.01415e-07
-2.73727e-06
-8.18415e-07
-2.24627e-06
-1.12407e-06
-1.70702e-06
-1.2274e-06
-1.19042e-06
-1.16362e-06
-7.46479e-07
-9.81766e-07
-4.03342e-07
-7.34628e-07
-1.69816e-07
-4.71179e-07
-4.00996e-08
-2.32692e-07
-5.2897e-08
-4.23136e-06
-4.70625e-07
-3.76585e-06
-1.28393e-06
-3.11897e-06
-1.77094e-06
-2.40047e-06
-1.94591e-06
-1.70181e-06
-1.86228e-06
-1.0895e-06
-1.59407e-06
-6.03903e-07
-1.22022e-06
-2.62278e-07
-8.12805e-07
-6.44687e-08
-4.30502e-07
-1.17366e-07
-5.55479e-06
-6.76885e-07
-4.97252e-06
-1.86621e-06
-4.15267e-06
-2.59079e-06
-3.22913e-06
-2.86945e-06
-2.31661e-06
-2.77479e-06
-1.50246e-06
-2.40822e-06
-8.44109e-07
-1.87858e-06
-3.71461e-07
-1.28545e-06
-9.24289e-08
-7.09534e-07
-2.09795e-07
-7.11209e-06
-9.15968e-07
-6.40695e-06
-2.57135e-06
-5.39558e-06
-3.60216e-06
-4.23609e-06
-4.02895e-06
-3.06977e-06
-3.94111e-06
-2.01058e-06
-3.46741e-06
-1.13966e-06
-2.7495e-06
-5.05146e-07
-1.91996e-06
-1.26302e-07
-1.08838e-06
-3.36097e-07
-8.94062e-06
-1.17666e-06
-8.11547e-06
-3.3965e-06
-6.90094e-06
-4.81669e-06
-5.47633e-06
-5.45356e-06
-4.01155e-06
-5.40588e-06
-2.6539e-06
-4.82506e-06
-1.51738e-06
-3.88603e-06
-6.7716e-07
-2.76018e-06
-1.70145e-07
-1.59539e-06
-5.06241e-07
-1.10275e-05
-1.43521e-06
-1.01086e-05
-4.31534e-06
-8.70481e-06
-6.22052e-06
-7.00481e-06
-7.15357e-06
-5.20379e-06
-7.20691e-06
-3.48824e-06
-6.54061e-06
-2.01761e-06
-5.35666e-06
-9.09131e-07
-3.86865e-06
-2.3035e-07
-2.27418e-06
-7.36591e-07
-1.32174e-05
-1.64828e-06
-1.22812e-05
-5.25157e-06
-1.07653e-05
-7.73643e-06
-8.838e-06
-9.08082e-06
-6.70167e-06
-9.34324e-06
-4.58112e-06
-8.66116e-06
-2.69691e-06
-7.24087e-06
-1.23393e-06
-5.33164e-06
-3.17036e-07
-3.19107e-06
-1.05363e-06
-3.56689e-07
1.38213e-06
-1.35245e-06
4.05166e-06
-2.88793e-06
6.59584e-06
-4.79921e-06
8.76243e-06
-6.88678e-06
1.03148e-05
-8.94864e-06
1.10508e-05
-1.08088e-05
1.08114e-05
-1.23318e-05
9.47613e-06
-1.34175e-05
6.94481e-06
3.1182e-06
-1.39695e-05
-4.13316e-07
1.79545e-06
-1.52381e-06
5.16215e-06
-3.15158e-06
8.2236e-06
-5.04835e-06
1.06592e-05
-6.96011e-06
1.22266e-05
-8.67995e-06
1.27706e-05
-1.00798e-05
1.22112e-05
-1.1116e-05
1.05123e-05
-1.18078e-05
7.63663e-06
3.49977e-06
-1.21894e-05
-4.94071e-07
2.28952e-06
-1.73966e-06
6.40774e-06
-3.41732e-06
9.90126e-06
-5.16376e-06
1.24056e-05
-6.68149e-06
1.37443e-05
-7.79837e-06
1.38875e-05
-8.48083e-06
1.28937e-05
-8.81215e-06
1.08436e-05
-8.94866e-06
7.77315e-06
3.61266e-06
-9.06155e-06
-6.2382e-07
2.91334e-06
-2.03433e-06
7.81825e-06
-3.67931e-06
1.15462e-05
-5.06807e-06
1.37944e-05
-5.91317e-06
1.45894e-05
-6.15001e-06
1.41243e-05
-5.89346e-06
1.26372e-05
-5.37177e-06
1.03219e-05
-4.86402e-06
7.2654e-06
3.39812e-06
-4.64947e-06
-8.42986e-07
3.75632e-06
-2.42814e-06
9.4034e-06
-3.85273e-06
1.29708e-05
-4.5608e-06
1.45025e-05
-4.40221e-06
1.44308e-05
-3.51787e-06
1.324e-05
-2.20577e-06
1.1325e-05
-8.1624e-07
8.93241e-06
3.05149e-07
6.14401e-06
2.8679e-06
8.3536e-07
-1.19932e-06
4.95564e-06
-2.85702e-06
1.10611e-05
-3.66415e-06
1.3778e-05
-3.23369e-06
1.4072e-05
-1.75387e-06
1.2951e-05
3.57631e-07
1.11285e-05
2.65229e-06
9.03039e-06
4.74119e-06
6.84351e-06
6.30441e-06
4.58078e-06
2.11562e-06
7.0567e-06
-1.67963e-06
6.63527e-06
-2.98282e-06
1.23643e-05
-2.47098e-06
1.32661e-05
-4.00891e-07
1.20019e-05
2.53332e-06
1.00168e-05
5.69944e-06
7.9624e-06
8.64218e-06
6.08765e-06
1.10689e-05
4.41674e-06
1.27815e-05
2.86824e-06
1.29877e-06
1.35983e-05
-2.00177e-06
8.63704e-06
-1.81002e-06
1.21726e-05
9.59392e-07
1.04967e-05
4.88531e-06
8.076e-06
8.93035e-06
5.97176e-06
1.25576e-05
4.33514e-06
1.55399e-05
3.10534e-06
1.78034e-05
2.15326e-06
1.93175e-05
1.35411e-06
5.94407e-07
2.00219e-05
-7.62551e-07
9.39959e-06
3.19807e-06
8.21193e-06
8.63038e-06
5.0644e-06
1.35865e-05
3.11985e-06
1.75799e-05
1.97841e-06
2.06271e-05
1.28795e-06
2.28748e-05
8.57617e-07
2.44611e-05
5.66947e-07
2.54713e-05
3.43897e-07
1.42863e-07
2.59229e-05
9.39959e-06
1.76115e-05
2.26759e-05
2.57958e-05
2.77742e-05
2.90621e-05
2.99197e-05
3.04867e-05
3.08306e-05
3.09734e-05
-1.3873e-05
-1.74479e-06
-1.31395e-05
-5.98507e-06
-1.18212e-05
-9.0547e-06
-9.99921e-06
-1.09028e-05
-7.82162e-06
-1.15208e-05
-5.51031e-06
-1.09725e-05
-3.33463e-06
-9.41654e-06
-1.56312e-06
-7.10316e-06
-4.10795e-07
-4.34339e-06
-1.46442e-06
-1.22398e-05
-1.69436e-06
-1.19127e-05
-6.31218e-06
-1.11338e-05
-9.83356e-06
-9.8432e-06
-1.21935e-05
-8.06427e-06
-1.32998e-05
-5.94396e-06
-1.30928e-05
-3.75026e-06
-1.16102e-05
-1.82376e-06
-9.02966e-06
-4.95774e-07
-5.67137e-06
-1.9602e-06
-9.23805e-06
-1.51786e-06
-9.3876e-06
-6.16263e-06
-9.31828e-06
-9.90289e-06
-8.81989e-06
-1.26918e-05
-7.74987e-06
-1.43698e-05
-6.11213e-06
-1.47305e-05
-4.10517e-06
-1.36172e-05
-2.11032e-06
-1.10245e-05
-6.03311e-07
-7.17838e-06
-2.56351e-06
-4.90996e-06
-1.25737e-06
-5.53236e-06
-5.54023e-06
-6.24852e-06
-9.18672e-06
-6.73234e-06
-1.2208e-05
-6.67089e-06
-1.44312e-05
-5.8649e-06
-1.55365e-05
-4.34204e-06
-1.51401e-05
-2.4343e-06
-1.29323e-05
-7.53868e-07
-8.85881e-06
-3.31738e-06
5.39945e-07
-9.61956e-07
-4.67718e-07
-4.53257e-06
-1.90837e-06
-7.74608e-06
-3.41953e-06
-1.06969e-05
-4.57498e-06
-1.32758e-05
-4.96089e-06
-1.51506e-05
-4.32771e-06
-1.57732e-05
-2.78911e-06
-1.44709e-05
-9.83166e-07
-1.06648e-05
-4.30054e-06
6.76799e-06
-6.73253e-07
5.5356e-06
-3.30018e-06
3.58358e-06
-5.79405e-06
1.2078e-06
-8.32108e-06
-1.17373e-06
-1.08942e-05
-3.01687e-06
-1.33075e-05
-3.75719e-06
-1.50329e-05
-3.07335e-06
-1.51547e-05
-1.32862e-06
-1.24095e-05
-5.62916e-06
1.33431e-05
-4.17982e-07
1.20894e-05
-2.04655e-06
9.96567e-06
-3.67029e-06
7.11861e-06
-5.47402e-06
3.80947e-06
-7.5851e-06
5.17668e-07
-1.00157e-05
-2.01294e-06
-1.25023e-05
-2.90645e-06
-1.42612e-05
-1.74778e-06
-1.35682e-05
-7.37694e-06
1.98147e-05
-2.10754e-07
1.87458e-05
-9.77727e-07
1.68508e-05
-1.77521e-06
1.41135e-05
-2.73675e-06
1.05444e-05
-4.016e-06
6.3169e-06
-5.78816e-06
1.9798e-06
-8.16522e-06
-1.30562e-06
-1.09758e-05
-1.90475e-06
-1.2969e-05
-9.28169e-06
2.57764e-05
-6.4274e-08
2.50608e-05
-2.62107e-07
2.37607e-05
-4.75112e-07
2.17748e-05
-7.50874e-07
1.89232e-05
-1.16441e-06
1.49866e-05
-1.85155e-06
9.8724e-06
-3.05104e-06
4.06031e-06
-5.16368e-06
-3.99601e-07
-8.50911e-06
-9.68129e-06
3.09092e-05
3.06471e-05
3.01719e-05
2.94211e-05
2.82567e-05
2.64051e-05
2.33541e-05
1.81904e-05
9.68129e-06
)
;

boundaryField
{
    movingWall
    {
        type            calculated;
        value           uniform 0;
    }
    fixedWalls
    {
        type            calculated;
        value           uniform 0;
    }
    frontAndBack
    {
        type            empty;
        value           nonuniform 0();
    }
}


// ************************************************************************* //
