/*--------------------------------*- C++ -*----------------------------------*\
  =========                 |
  \\      /  F ield         | OpenFOAM: The Open Source CFD Toolbox
   \\    /   O peration     | Website:  https://openfoam.org
    \\  /    A nd           | Version:  6
     \\/     M anipulation  |
\*---------------------------------------------------------------------------*/
FoamFile
{
    version     2.0;
    format      ascii;
    class       volVectorField;
    location    "0.6";
    object      U;
}
// * * * * * * * * * * * * * * * * * * * * * * * * * * * * * * * * * * * * * //

dimensions      [0 1 -1 0 0 0 0];

internalField   nonuniform List<vector> 
400
(
(0.000129654 -0.000128675 0)
(0.000242802 -5.13341e-05 0)
(-7.34845e-05 0.000131751 0)
(-0.000976576 0.00031129 0)
(-0.00247229 0.000447291 0)
(-0.00445503 0.000522206 0)
(-0.00672976 0.0005277 0)
(-0.00901984 0.000461297 0)
(-0.0109753 0.000325122 0)
(-0.0121892 0.000126888 0)
(5.93333e-05 -0.000247686 0)
(-0.000233401 0.000246041 0)
(-0.00159539 0.0011012 0)
(-0.00429618 0.00194923 0)
(-0.00837357 0.0026046 0)
(-0.0136261 0.00295989 0)
(-0.0196007 0.00295356 0)
(-0.0256032 0.00256061 0)
(-0.0307252 0.00178916 0)
(-0.0338975 0.000685987 0)
(-0.000115235 4.4405e-05 0)
(-0.00108194 0.00159639 0)
(-0.00378311 0.00375851 0)
(-0.00842366 0.00587853 0)
(-0.0149976 0.00752704 0)
(-0.0232233 0.00840551 0)
(-0.0324519 0.00832075 0)
(-0.0416607 0.00718071 0)
(-0.0494888 0.00499581 0)
(-0.0543225 0.00189764 0)
(-0.000300307 0.000926667 0)
(-0.00201501 0.00435088 0)
(-0.00620731 0.00845039 0)
(-0.0129235 0.0123424 0)
(-0.0220272 0.0153314 0)
(-0.033121 0.0168723 0)
(-0.045372 0.0165797 0)
(-0.0574798 0.0142505 0)
(-0.0677127 0.0098865 0)
(-0.0740131 0.0037391 0)
(-0.000476008 0.00249455 0)
(-0.00294798 0.00879774 0)
(-0.00870463 0.0155675 0)
(-0.017608 0.0217304 0)
(-0.0293291 0.0263349 0)
(-0.0433051 0.0285751 0)
(-0.0585017 0.0278477 0)
(-0.07336 0.0238172 0)
(-0.0858337 0.0164745 0)
(-0.0935006 0.00622207 0)
(-0.000645511 0.00482825 0)
(-0.00387931 0.0152264 0)
(-0.011257 0.025577 0)
(-0.02246 0.0346061 0)
(-0.0369267 0.0411083 0)
(-0.0538796 0.044021 0)
(-0.0720513 0.0425275 0)
(-0.0896251 0.0361684 0)
(-0.104278 0.024943 0)
(-0.113289 0.00943867 0)
(-0.000820124 0.00803883 0)
(-0.00484804 0.0239815 0)
(-0.0139367 0.0390254 0)
(-0.0275868 0.0516413 0)
(-0.0449669 0.0603537 0)
(-0.0650369 0.0638555 0)
(-0.0862603 0.0611501 0)
(-0.106558 0.0516995 0)
(-0.123368 0.0355578 0)
(-0.133744 0.0135382 0)
(-0.0010155 0.0122991 0)
(-0.00591827 0.0355329 0)
(-0.016878 0.0566097 0)
(-0.0331834 0.0736567 0)
(-0.0536746 0.0848996 0)
(-0.0769895 0.088815 0)
(-0.101287 0.0843 0)
(-0.124237 0.0708328 0)
(-0.143104 0.0486089 0)
(-0.154826 0.0187149 0)
(-0.00125141 0.017876 0)
(-0.00717521 0.0505518 0)
(-0.0202622 0.0792575 0)
(-0.0394979 0.101664 0)
(-0.0632792 0.115678 0)
(-0.0898335 0.119636 0)
(-0.116985 0.112475 0)
(-0.142202 0.0938673 0)
(-0.162722 0.0642938 0)
(-0.175584 0.0251668 0)
(-0.00155537 0.0251734 0)
(-0.00873937 0.0700011 0)
(-0.0243348 0.108195 0)
(-0.0468142 0.13684 0)
(-0.0739076 0.153565 0)
(-0.103293 0.156761 0)
(-0.132451 0.14571 0)
(-0.158802 0.120596 0)
(-0.179858 0.0824168 0)
(-0.193164 0.0329613 0)
(-0.0122418 -0.000105535 0)
(-0.011097 -0.000316421 0)
(-0.00914158 -0.000467768 0)
(-0.0068006 -0.000543473 0)
(-0.0044611 -0.000538132 0)
(-0.00243156 -0.00045601 0)
(-0.000921268 -0.000310201 0)
(-3.16504e-05 -0.000123524 0)
(0.000260412 6.01543e-05 0)
(0.000132633 0.000131477 0)
(-0.0340136 -0.000590828 0)
(-0.0309938 -0.00175031 0)
(-0.0258744 -0.00258998 0)
(-0.019764 -0.00302541 0)
(-0.0136505 -0.00303352 0)
(-0.00829537 -0.00264701 0)
(-0.00418177 -0.00194831 0)
(-0.00150344 -0.00106769 0)
(-0.00018924 -0.000206538 0)
(6.93358e-05 0.000264912 0)
(-0.0544848 -0.00166627 0)
(-0.0498668 -0.0049005 0)
(-0.0420497 -0.00725144 0)
(-0.0326986 -0.00849641 0)
(-0.0232797 -0.00858831 0)
(-0.0149075 -0.00763686 0)
(-0.0082745 -0.00588455 0)
(-0.00365632 -0.0036835 0)
(-0.0010173 -0.0015002 0)
(-9.94609e-05 4.78273e-06 0)
(-0.0742302 -0.00330887 0)
(-0.0682269 -0.00970393 0)
(-0.0580306 -0.0143728 0)
(-0.0457559 -0.0168993 0)
(-0.033262 -0.0172134 0)
(-0.0219663 -0.0155466 0)
(-0.0127647 -0.0123703 0)
(-0.0060568 -0.00832519 0)
(-0.00193265 -0.00417575 0)
(-0.000278894 -0.000829287 0)
(-0.0938121 -0.00549662 0)
(-0.0865911 -0.0161476 0)
(-0.0742194 -0.0239886 0)
(-0.0591771 -0.0283559 0)
(-0.0436644 -0.029143 0)
(-0.029394 -0.0267206 0)
(-0.0174963 -0.021821 0)
(-0.0085552 -0.0154005 0)
(-0.00285368 -0.00852787 0)
(-0.00044897 -0.0023324 0)
(-0.113774 -0.00823002 0)
(-0.10549 -0.0243481 0)
(-0.091082 -0.0363605 0)
(-0.0733231 -0.0432856 0)
(-0.054726 -0.0449343 0)
(-0.0373187 -0.0417954 0)
(-0.0225211 -0.034862 0)
(-0.0111695 -0.0254211 0)
(-0.00379151 -0.014868 0)
(-0.000614995 -0.00458809 0)
(-0.134525 -0.0114834 0)
(-0.125374 -0.0344405 0)
(-0.109087 -0.0518245 0)
(-0.088643 -0.0622396 0)
(-0.0668404 -0.0653187 0)
(-0.0460536 -0.0615961 0)
(-0.0280627 -0.0522927 0)
(-0.0140369 -0.0390366 0)
(-0.00480999 -0.0236025 0)
(-0.000793049 -0.00772534 0)
(-0.156078 -0.0151592 0)
(-0.14638 -0.0464858 0)
(-0.128524 -0.0706827 0)
(-0.105557 -0.085811 0)
(-0.0804895 -0.0911601 0)
(-0.0560604 -0.0871596 0)
(-0.0344905 -0.075168 0)
(-0.017393 -0.0571501 0)
(-0.00601362 -0.0353388 0)
(-0.00100697 -0.011965 0)
(-0.177501 -0.0190299 0)
(-0.167835 -0.0603276 0)
(-0.149106 -0.0930179 0)
(-0.124168 -0.114467 0)
(-0.0960703 -0.12336 0)
(-0.0678631 -0.119738 0)
(-0.0422873 -0.104896 0)
(-0.021564 -0.0810652 0)
(-0.00754851 -0.0510173 0)
(-0.00128961 -0.0176769 0)
(-0.195888 -0.0226545 0)
(-0.187257 -0.0753043 0)
(-0.16911 -0.118277 0)
(-0.143627 -0.148114 0)
(-0.113491 -0.162514 0)
(-0.0818535 -0.160634 0)
(-0.0519962 -0.143256 0)
(-0.0269776 -0.112633 0)
(-0.00961957 -0.0720809 0)
(-0.00168824 -0.0254619 0)
(-0.00195981 0.0344467 0)
(-0.0107434 0.0943024 0)
(-0.0292962 0.143564 0)
(-0.0551393 0.178634 0)
(-0.0849535 0.197098 0)
(-0.115704 0.197884 0)
(-0.144634 0.181205 0)
(-0.169477 0.148283 0)
(-0.188581 0.100953 0)
(-0.200667 0.0413756 0)
(-0.00252446 0.0455157 0)
(-0.0133702 0.122488 0)
(-0.0352855 0.183064 0)
(-0.064078 0.223069 0)
(-0.0948749 0.240723 0)
(-0.123906 0.236431 0)
(-0.148568 0.212226 0)
(-0.16757 0.170985 0)
(-0.180855 0.115617 0)
(-0.189067 0.048503 0)
(-0.00341084 0.0585017 0)
(-0.0170804 0.153991 0)
(-0.0427373 0.22449 0)
(-0.0733081 0.265942 0)
(-0.101928 0.278634 0)
(-0.124515 0.265891 0)
(-0.139488 0.23255 0)
(-0.147446 0.183538 0)
(-0.150631 0.122758 0)
(-0.152075 0.0524445 0)
(-0.00498132 0.0744372 0)
(-0.0227944 0.189581 0)
(-0.0523191 0.266536 0)
(-0.0820115 0.303526 0)
(-0.103155 0.305583 0)
(-0.112709 0.280808 0)
(-0.111591 0.237546 0)
(-0.103267 0.182582 0)
(-0.0926223 0.120204 0)
(-0.0849554 0.0519336 0)
(-0.0079521 0.0953285 0)
(-0.0318806 0.230114 0)
(-0.0639532 0.306353 0)
(-0.0869161 0.330001 0)
(-0.0921869 0.314984 0)
(-0.0805467 0.275744 0)
(-0.0571761 0.223767 0)
(-0.0288673 0.166461 0)
(-0.0026349 0.10732 0)
(0.0149085 0.0465155 0)
(-0.0134602 0.124672 0)
(-0.0454696 0.275184 0)
(-0.074328 0.337443 0)
(-0.0790417 0.336449 0)
(-0.0568497 0.299429 0)
(-0.0160834 0.246664 0)
(0.0330297 0.190376 0)
(0.0813933 0.136256 0)
(0.121575 0.0856081 0)
(0.147357 0.0369027 0)
(-0.0221149 0.168419 0)
(-0.0609846 0.319578 0)
(-0.0707549 0.346002 0)
(-0.0385163 0.31023 0)
(0.0228799 0.25238 0)
(0.0960656 0.193066 0)
(0.168199 0.140563 0)
(0.231026 0.0963145 0)
(0.279324 0.0587327 0)
(0.309125 0.0249479 0)
(-0.0285811 0.232674 0)
(-0.0614624 0.344463 0)
(-0.0194355 0.308205 0)
(0.0711405 0.238779 0)
(0.174424 0.173458 0)
(0.27151 0.121549 0)
(0.354165 0.0828915 0)
(0.419343 0.0541968 0)
(0.466209 0.0319812 0)
(0.49398 0.0132374 0)
(0.00799078 0.282862 0)
(0.0201788 0.300573 0)
(0.154039 0.205857 0)
(0.303683 0.130608 0)
(0.42534 0.0819541 0)
(0.518789 0.0515564 0)
(0.588815 0.0325884 0)
(0.639454 0.0202332 0)
(0.673784 0.0114944 0)
(0.693293 0.0045308 0)
(0.305485 0.144738 0)
(0.408941 0.125503 0)
(0.582953 0.0698639 0)
(0.70887 0.0365051 0)
(0.781828 0.0194298 0)
(0.827113 0.0107115 0)
(0.857108 0.00615008 0)
(0.87715 0.00357522 0)
(0.89002 0.00192605 0)
(0.89697 0.000684473 0)
(-0.204058 -0.0251341 0)
(-0.197996 -0.0890875 0)
(-0.18308 -0.143304 0)
(-0.16008 -0.183556 0)
(-0.130561 -0.206144 0)
(-0.0972049 -0.208574 0)
(-0.0636242 -0.190237 0)
(-0.0339168 -0.152714 0)
(-0.012423 -0.099591 0)
(-0.0022545 -0.0358701 0)
(-0.192461 -0.0255494 0)
(-0.190575 -0.0979568 0)
(-0.182341 -0.162087 0)
(-0.166401 -0.213418 0)
(-0.142233 -0.246756 0)
(-0.111042 -0.25719 0)
(-0.0760368 -0.241439 0)
(-0.0422263 -0.199023 0)
(-0.0160742 -0.132841 0)
(-0.00304368 -0.048917 0)
(-0.154409 -0.0238372 0)
(-0.157754 -0.0996471 0)
(-0.159351 -0.170048 0)
(-0.155451 -0.231097 0)
(-0.142718 -0.27663 0)
(-0.119641 -0.299082 0)
(-0.0876421 -0.291229 0)
(-0.0517547 -0.248464 0)
(-0.0208725 -0.170934 0)
(-0.00419929 -0.0647159 0)
(-0.0851289 -0.0204809 0)
(-0.0939764 -0.0935344 0)
(-0.107468 -0.164855 0)
(-0.119932 -0.232119 0)
(-0.125174 -0.289423 0)
(-0.117988 -0.327288 0)
(-0.0960774 -0.333954 0)
(-0.0623963 -0.298273 0)
(-0.0275403 -0.21396 0)
(-0.00607015 -0.0841954 0)
(0.0175491 -0.0162129 0)
(0.00389931 -0.0803265 0)
(-0.0215477 -0.146218 0)
(-0.052464 -0.213972 0)
(-0.0809208 -0.279639 0)
(-0.0981162 -0.333901 0)
(-0.0963365 -0.361588 0)
(-0.0729695 -0.343451 0)
(-0.0371329 -0.261553 0)
(-0.00935428 -0.109125 0)
(0.152598 -0.0117733 0)
(0.13577 -0.062058 0)
(0.100914 -0.116441 0)
(0.0532772 -0.177449 0)
(0.000218345 -0.244513 0)
(-0.0479037 -0.311516 0)
(-0.0781152 -0.363572 0)
(-0.0786489 -0.374958 0)
(-0.0501151 -0.311421 0)
(-0.0150869 -0.142581 0)
(0.315771 -0.00770311 0)
(0.298067 -0.0417085 0)
(0.258919 -0.0803095 0)
(0.201061 -0.12745 0)
(0.128588 -0.186048 0)
(0.049444 -0.255695 0)
(-0.0221167 -0.327566 0)
(-0.0653108 -0.377082 0)
(-0.0624706 -0.355834 0)
(-0.023396 -0.189776 0)
(0.500193 -0.00430697 0)
(0.484252 -0.0226865 0)
(0.447745 -0.0444669 0)
(0.390599 -0.0732522 0)
(0.312206 -0.113534 0)
(0.21396 -0.170126 0)
(0.103213 -0.244646 0)
(-0.00012163 -0.326887 0)
(-0.0552502 -0.373185 0)
(-0.0274784 -0.254466 0)
(0.697335 -0.00181467 0)
(0.685814 -0.00849422 0)
(0.659312 -0.0167061 0)
(0.616205 -0.0283793 0)
(0.552668 -0.0467434 0)
(0.463172 -0.077382 0)
(0.340867 -0.128872 0)
(0.183657 -0.211087 0)
(0.0372226 -0.313896 0)
(0.0155717 -0.295942 0)
(0.898072 -0.000422506 0)
(0.893386 -0.00159442 0)
(0.882985 -0.00308657 0)
(0.865787 -0.00537171 0)
(0.839073 -0.00942715 0)
(0.797384 -0.0174159 0)
(0.727988 -0.0339274 0)
(0.603079 -0.0678114 0)
(0.423145 -0.125925 0)
(0.311856 -0.147041 0)
)
;

boundaryField
{
    movingWall
    {
        type            fixedValue;
        value           uniform (1 0 0);
    }
    fixedWalls
    {
        type            noSlip;
    }
    frontAndBack
    {
        type            empty;
    }
}


// ************************************************************************* //
