/*--------------------------------*- C++ -*----------------------------------*\
| =========                 |                                                 |
| \\      /  F ield         | OpenFOAM: The Open Source CFD Toolbox           |
|  \\    /   O peration     | Version:  5.0                                   |
|   \\  /    A nd           | Web:      www.OpenFOAM.org                      |
|    \\/     M anipulation  |                                                 |
\*---------------------------------------------------------------------------*/
FoamFile
{
    version     2.0;
    format      ascii;
    class       volScalarField;
    location    "8.5";
    object      epsilon;
}
// * * * * * * * * * * * * * * * * * * * * * * * * * * * * * * * * * * * * * //

dimensions      [0 2 -3 0 0 0 0];

internalField   nonuniform List<scalar> 
400
(
2.15248e-05
7.64984e-05
0.000308703
0.000627914
0.000839614
0.00100207
0.00113432
0.00126089
0.00137205
0.00148587
0.00159244
0.00170511
0.00181838
0.00189289
0.00192684
0.00192933
0.00178618
0.00141186
0.000871447
0.00062772
9.69735e-05
0.00028173
0.000734285
0.00101071
0.00107608
0.00110132
0.00111011
0.00115162
0.00120166
0.00128963
0.00139915
0.00154181
0.00171084
0.0019109
0.00213108
0.00234864
0.00245086
0.00245827
0.00194034
0.00127308
0.000315601
0.000835767
0.00105821
0.00108692
0.00106424
0.00104982
0.00104144
0.00107802
0.00113811
0.0012156
0.00130453
0.00140445
0.00152347
0.00167126
0.00185488
0.00207848
0.00227435
0.00235261
0.00216934
0.00163124
0.000706834
0.00111575
0.00113292
0.0010534
0.000991194
0.000952623
0.000944497
0.000962802
0.000989587
0.00101905
0.00105852
0.00112021
0.00121688
0.00135953
0.00156968
0.00185502
0.00217158
0.00231745
0.00227554
0.00186269
0.00101657
0.00126088
0.00110591
0.000966266
0.000870776
0.000822068
0.000792629
0.000770916
0.000751601
0.00074329
0.000744358
0.000784111
0.000867126
0.00101585
0.00125986
0.00162758
0.00211451
0.00240841
0.00244806
0.00203573
0.00117978
0.00125327
0.00103379
0.000854848
0.0007557
0.000690496
0.000632268
0.0005748
0.00052187
0.000488965
0.000476548
0.00048901
0.000559063
0.000697757
0.000949766
0.00137086
0.0020038
0.00255719
0.00269798
0.00217498
0.00120677
0.00120608
0.00093367
0.000757161
0.000654969
0.000574116
0.000494467
0.000416907
0.000350494
0.000308183
0.00029037
0.000289046
0.000338809
0.000452526
0.000680541
0.00110936
0.00184154
0.00269759
0.00298529
0.0022827
0.00118846
0.00110881
0.000842559
0.000676907
0.000574128
0.000483562
0.00039315
0.000309606
0.000243217
0.000201956
0.000183735
0.000180453
0.000211077
0.000292209
0.000477012
0.00087124
0.00163273
0.00277022
0.00333711
0.00237046
0.00114246
0.00100012
0.000763852
0.000614298
0.000514086
0.000420099
0.000327331
0.000245685
0.000184496
0.000148261
0.000132675
0.000130144
0.000150384
0.000206172
0.000344785
0.000690051
0.00146812
0.00278955
0.00368477
0.00243133
0.00105281
0.000908205
0.000700629
0.000567542
0.000472297
0.000380099
0.000289935
0.000212811
0.000157692
0.00012561
0.000111872
0.00011078
0.000125485
0.000166256
0.000269841
0.000553944
0.0012992
0.00278321
0.00405473
0.00247658
0.000959733
0.000828753
0.000650369
0.000533246
0.000445026
0.000357594
0.000273151
0.000203862
0.000153957
0.000123231
0.000108045
0.000106931
0.000118471
0.00015164
0.000235727
0.000474216
0.00116285
0.0027426
0.00438449
0.00249819
0.000878196
0.000778644
0.000615826
0.000510696
0.000428692
0.000349483
0.00027407
0.000208261
0.000160249
0.00013022
0.000115055
0.000114029
0.000122227
0.000149514
0.000224903
0.000437141
0.00106579
0.00271486
0.00467293
0.00250708
0.000790441
0.000736756
0.000595895
0.000498329
0.000424508
0.000351964
0.000281319
0.000221039
0.000176393
0.000147497
0.00013167
0.000130909
0.000138326
0.000162893
0.000228887
0.000425484
0.00102044
0.00270239
0.00482059
0.00250823
0.000708532
0.000717081
0.000602517
0.000503247
0.000430252
0.000361673
0.000298004
0.000244264
0.000202912
0.000175143
0.000158022
0.000157222
0.000164534
0.000189271
0.000254949
0.000441455
0.00100687
0.00270176
0.00487675
0.00249969
0.000615978
0.000690548
0.000616866
0.00052093
0.000448436
0.000383075
0.000324206
0.000274827
0.00023647
0.000210699
0.000193088
0.000193113
0.000201154
0.000228349
0.000299198
0.000494568
0.00104755
0.00275629
0.00484092
0.0024525
0.00052024
0.000680086
0.000649648
0.000569978
0.000493595
0.00042787
0.000369561
0.000320766
0.000282299
0.000256664
0.000238707
0.000239688
0.000250516
0.000284855
0.000371019
0.000599047
0.00117674
0.00288389
0.00457258
0.00236693
0.000414579
0.000631879
0.000662514
0.000635184
0.000576209
0.000511444
0.000449871
0.000396651
0.00035478
0.000325803
0.000310184
0.000314355
0.000333877
0.000388937
0.000517297
0.00083754
0.00149962
0.003167
0.00412384
0.00222571
0.000276538
0.000558626
0.000734213
0.000785254
0.000767047
0.000712883
0.000642866
0.000579876
0.00053319
0.000501764
0.00050411
0.0005266
0.000584661
0.000716998
0.000988185
0.00161684
0.00243674
0.00372596
0.00382371
0.00203552
0.000293326
0.0005634
0.000960073
0.00114026
0.00120108
0.0011958
0.00117297
0.00116366
0.00118016
0.00123235
0.00134373
0.00155062
0.00184016
0.00231183
0.00291908
0.00385502
0.00454817
0.00438106
0.00377606
0.00176893
0.000211899
0.000330491
0.000605679
0.000875499
0.00108
0.00120784
0.00127983
0.00132442
0.00134573
0.0013603
0.00136675
0.00137977
0.00139215
0.0014198
0.00144127
0.00149673
0.00156452
0.00164237
0.00162541
0.00145318
)
;

boundaryField
{
    movingWall
    {
        Cmu             0.09;
        kappa           0.41;
        E               9.8;
        type            epsilonWallFunction;
        value           nonuniform List<scalar> 
20
(
0.000211899
0.000330491
0.000605679
0.000875499
0.00108
0.00120784
0.00127983
0.00132442
0.00134573
0.0013603
0.00136675
0.00137977
0.00139215
0.0014198
0.00144127
0.00149673
0.00156452
0.00164237
0.00162541
0.00145318
)
;
    }
    fixedWalls
    {
        Cmu             0.09;
        kappa           0.41;
        E               9.8;
        type            epsilonWallFunction;
        value           nonuniform List<scalar> 
60
(
2.15248e-05
9.69735e-05
0.000315601
0.000706834
0.00101657
0.00117978
0.00120677
0.00118846
0.00114246
0.00105281
0.000959733
0.000878196
0.000790441
0.000708532
0.000615978
0.00052024
0.000414579
0.000276538
0.000293326
0.000211899
0.00062772
0.00127308
0.00163124
0.00186269
0.00203573
0.00217498
0.0022827
0.00237046
0.00243133
0.00247658
0.00249819
0.00250708
0.00250823
0.00249969
0.0024525
0.00236693
0.00222571
0.00203552
0.00176893
0.00145318
2.15248e-05
7.64984e-05
0.000308703
0.000627914
0.000839614
0.00100207
0.00113432
0.00126089
0.00137205
0.00148587
0.00159244
0.00170511
0.00181838
0.00189289
0.00192684
0.00192933
0.00178618
0.00141186
0.000871447
0.00062772
)
;
    }
    frontAndBack
    {
        type            empty;
    }
}


// ************************************************************************* //
