/*--------------------------------*- C++ -*----------------------------------*\
| =========                 |                                                 |
| \\      /  F ield         | OpenFOAM: The Open Source CFD Toolbox           |
|  \\    /   O peration     | Version:  5.0                                   |
|   \\  /    A nd           | Web:      www.OpenFOAM.org                      |
|    \\/     M anipulation  |                                                 |
\*---------------------------------------------------------------------------*/
FoamFile
{
    version     2.0;
    format      ascii;
    class       volScalarField;
    location    "8.5";
    object      k;
}
// * * * * * * * * * * * * * * * * * * * * * * * * * * * * * * * * * * * * * //

dimensions      [0 2 -2 0 0 0 0];

internalField   nonuniform List<scalar> 
400
(
6.73243e-06
2.39321e-05
9.65422e-05
0.00019631
0.000262461
0.000313227
0.000354556
0.000394109
0.000428846
0.000464413
0.000497718
0.000532927
0.000568323
0.000591603
0.000602208
0.000602984
0.000558232
0.000441237
0.000272354
0.000196185
3.03298e-05
0.000108371
0.000236227
0.000396922
0.000466651
0.000543346
0.000589282
0.000655008
0.000708347
0.000771513
0.00083112
0.000893649
0.000949296
0.00100997
0.00106348
0.00109067
0.00109689
0.000986197
0.000654724
0.000397847
9.86922e-05
0.000340596
0.000510812
0.000594053
0.000651094
0.000700227
0.000740169
0.000790512
0.000835864
0.000884465
0.000929184
0.000972416
0.00101431
0.00106142
0.00110769
0.00114164
0.00115426
0.00110737
0.00080421
0.000509748
0.000221004
0.000554087
0.000644132
0.000682247
0.000711255
0.00073571
0.000764686
0.000797991
0.000829634
0.00085927
0.000883985
0.000913508
0.000954185
0.00100801
0.00107708
0.00114598
0.00117699
0.00117795
0.000944964
0.000582061
0.000317817
0.000669699
0.000697207
0.000698812
0.000710463
0.000728008
0.000745103
0.00075291
0.00075298
0.000747583
0.00074732
0.000768133
0.000810885
0.000881793
0.000987587
0.00112313
0.00121888
0.00124312
0.00106839
0.000636124
0.000368823
0.000700117
0.000701194
0.000694563
0.00069761
0.000698347
0.00068324
0.000651287
0.00061964
0.000598712
0.000590982
0.000599452
0.000642402
0.000722567
0.000853904
0.00104187
0.00123852
0.00131858
0.00120423
0.000679632
0.000377257
0.000692619
0.000693942
0.000679602
0.000666507
0.000641276
0.000600133
0.000548383
0.00050239
0.000472224
0.000460042
0.000460294
0.000497875
0.000575979
0.000714944
0.000936337
0.00123636
0.00139264
0.00133169
0.00071329
0.000371532
0.000673242
0.000675704
0.00065229
0.00062841
0.000587562
0.000530763
0.00046925
0.000417927
0.000384539
0.000370048
0.000368262
0.000397127
0.000464663
0.000593265
0.000820301
0.00117197
0.00145591
0.00146903
0.000740712
0.000357154
0.000635396
0.000645467
0.000623794
0.000594645
0.000545515
0.00048161
0.000417298
0.000365967
0.000333117
0.000318611
0.000316616
0.000338285
0.000392953
0.000505383
0.000720329
0.00109191
0.00150037
0.00158842
0.000759736
0.000329134
0.000603274
0.000616989
0.000598894
0.000568612
0.000516867
0.000451865
0.000388664
0.000339684
0.000308376
0.000294165
0.00029322
0.000310607
0.000355068
0.000449331
0.000647332
0.00101926
0.00152072
0.00171039
0.000773881
0.000300042
0.000560868
0.000585571
0.000575177
0.000547688
0.000498994
0.00043712
0.000378589
0.000332856
0.000302531
0.000286995
0.000286624
0.000301191
0.000339044
0.000421803
0.000599605
0.000962108
0.0015281
0.00181131
0.00078064
0.000274555
0.000525409
0.000561742
0.000557229
0.000535099
0.000489784
0.000435512
0.000381122
0.000337276
0.000307672
0.000291899
0.000291265
0.000301955
0.000335374
0.000412194
0.000576739
0.000918069
0.00153029
0.00189355
0.000783425
0.000247125
0.000479126
0.000533543
0.00053675
0.000523401
0.000488474
0.000439228
0.000389972
0.000349867
0.000321995
0.000306516
0.00030672
0.000316476
0.000346418
0.000415343
0.000570024
0.000896171
0.00153109
0.00193256
0.000783788
0.000221521
0.000449422
0.000518008
0.000525371
0.000516756
0.000490959
0.000448781
0.000407016
0.000371569
0.000346036
0.000330995
0.000331717
0.000341621
0.000371126
0.00043789
0.000583787
0.000889272
0.00153
0.00194377
0.000781136
0.00019259
0.000401667
0.000492156
0.000515481
0.000513651
0.000497915
0.000464642
0.000429232
0.00039882
0.000376555
0.000363204
0.000364658
0.000375332
0.000405591
0.000472367
0.000617726
0.000900658
0.001528
0.00190333
0.000766382
0.000162661
0.000372925
0.000479155
0.000517821
0.000520948
0.000512647
0.000490768
0.000461066
0.000434254
0.000413947
0.000401483
0.000403564
0.000415408
0.00044799
0.000518311
0.0006749
0.000938624
0.00152902
0.00181015
0.000739653
0.000129633
0.000311528
0.000444641
0.00052239
0.000542992
0.000540335
0.000527586
0.000501847
0.000477121
0.000457208
0.000447439
0.000451425
0.000467381
0.000507945
0.000590324
0.00077757
0.00103199
0.00154939
0.00164658
0.000695515
8.64652e-05
0.000267141
0.000454308
0.00055743
0.000615554
0.000617102
0.000608919
0.000587511
0.000564722
0.000545886
0.000546435
0.00055781
0.000588566
0.000658762
0.000778507
0.00104069
0.00131531
0.0016008
0.00146651
0.000636088
9.16951e-05
0.000284785
0.000503958
0.000630612
0.000704939
0.000734145
0.000750861
0.000765674
0.000784306
0.000814488
0.000866736
0.000947695
0.00105907
0.00122603
0.00142465
0.00171748
0.001824
0.00170502
0.00135196
0.000552778
6.62391e-05
0.000103308
0.000189327
0.000273678
0.000337592
0.000377556
0.000400051
0.000413982
0.000420642
0.000425189
0.000427202
0.000431258
0.000435119
0.000443745
0.000450443
0.000467754
0.000488935
0.000513244
0.000507938
0.000454104
)
;

boundaryField
{
    movingWall
    {
        type            kqRWallFunction;
        value           nonuniform List<scalar> 
20
(
6.62391e-05
0.000103308
0.000189327
0.000273678
0.000337592
0.000377556
0.000400051
0.000413982
0.000420642
0.000425189
0.000427202
0.000431258
0.000435119
0.000443745
0.000450443
0.000467754
0.000488935
0.000513244
0.000507938
0.000454104
)
;
    }
    fixedWalls
    {
        type            kqRWallFunction;
        value           nonuniform List<scalar> 
60
(
6.73243e-06
3.03298e-05
9.86922e-05
0.000221004
0.000317817
0.000368823
0.000377257
0.000371532
0.000357154
0.000329134
0.000300042
0.000274555
0.000247125
0.000221521
0.00019259
0.000162661
0.000129633
8.64652e-05
9.16951e-05
6.62391e-05
0.000196185
0.000397847
0.000509748
0.000582061
0.000636124
0.000679632
0.00071329
0.000740712
0.000759736
0.000773881
0.00078064
0.000783425
0.000783788
0.000781136
0.000766382
0.000739653
0.000695515
0.000636088
0.000552778
0.000454104
6.73243e-06
2.39321e-05
9.65422e-05
0.00019631
0.000262461
0.000313227
0.000354556
0.000394109
0.000428846
0.000464413
0.000497718
0.000532927
0.000568323
0.000591603
0.000602208
0.000602984
0.000558232
0.000441237
0.000272354
0.000196185
)
;
    }
    frontAndBack
    {
        type            empty;
    }
}


// ************************************************************************* //
