/*--------------------------------*- C++ -*----------------------------------*\
| =========                 |                                                 |
| \\      /  F ield         | OpenFOAM: The Open Source CFD Toolbox           |
|  \\    /   O peration     | Version:  5.0                                   |
|   \\  /    A nd           | Web:      www.OpenFOAM.org                      |
|    \\/     M anipulation  |                                                 |
\*---------------------------------------------------------------------------*/
FoamFile
{
    version     2.0;
    format      ascii;
    class       volScalarField;
    location    "8.5";
    object      nut;
}
// * * * * * * * * * * * * * * * * * * * * * * * * * * * * * * * * * * * * * //

dimensions      [0 2 -1 0 0 0 0];

internalField   nonuniform List<scalar> 
400
(
1.89517e-07
6.73832e-07
2.71729e-06
5.52365e-06
7.38399e-06
8.81179e-06
9.97414e-06
1.10866e-05
1.20636e-05
1.30639e-05
1.40006e-05
1.49908e-05
1.59863e-05
1.66409e-05
1.69391e-05
1.69609e-05
1.57017e-05
1.24107e-05
7.66071e-06
5.51832e-06
8.53748e-07
3.75173e-06
6.83969e-06
1.4029e-05
1.82129e-05
2.41259e-05
2.81529e-05
3.35294e-05
3.75798e-05
4.15397e-05
4.4433e-05
4.66171e-05
4.74064e-05
4.80424e-05
4.77639e-05
4.55843e-05
4.4182e-05
3.56074e-05
1.9883e-05
1.11898e-05
2.7776e-06
1.24921e-05
2.21918e-05
2.92209e-05
3.58501e-05
4.20342e-05
4.73447e-05
5.21713e-05
5.52495e-05
5.79177e-05
5.95652e-05
6.05957e-05
6.07783e-05
6.06694e-05
5.95331e-05
5.64354e-05
5.27218e-05
4.69113e-05
2.68321e-05
1.43363e-05
6.21909e-06
2.47647e-05
3.29606e-05
3.97681e-05
4.5934e-05
5.11369e-05
5.57196e-05
5.95252e-05
6.25982e-05
6.52085e-05
6.64404e-05
6.7045e-05
6.73381e-05
6.72635e-05
6.65164e-05
6.37154e-05
5.7413e-05
5.38869e-05
3.53173e-05
1.63696e-05
8.94252e-06
3.20131e-05
3.95591e-05
4.54848e-05
5.21698e-05
5.8024e-05
6.30383e-05
6.61793e-05
6.78925e-05
6.76712e-05
6.75265e-05
6.77233e-05
6.82463e-05
6.88882e-05
6.96741e-05
6.97525e-05
6.32343e-05
5.77482e-05
4.19645e-05
1.78898e-05
1.03771e-05
3.51997e-05
4.28041e-05
5.07898e-05
5.79586e-05
6.35658e-05
6.64488e-05
6.64157e-05
6.62153e-05
6.59783e-05
6.59606e-05
6.61353e-05
6.64348e-05
6.73433e-05
6.90946e-05
7.12659e-05
6.8896e-05
6.11918e-05
4.83749e-05
1.91133e-05
1.06143e-05
3.57976e-05
4.6419e-05
5.48989e-05
6.10424e-05
6.44662e-05
6.55542e-05
6.49188e-05
6.48102e-05
6.51221e-05
6.55971e-05
6.597e-05
6.58459e-05
6.59798e-05
6.75977e-05
7.11271e-05
7.47057e-05
6.4706e-05
5.34637e-05
2.00598e-05
1.04533e-05
3.67899e-05
4.87703e-05
5.65712e-05
6.19041e-05
6.42537e-05
6.44889e-05
6.40091e-05
6.46322e-05
6.5897e-05
6.70762e-05
6.76383e-05
6.72448e-05
6.65004e-05
6.64065e-05
6.95106e-05
7.57117e-05
6.88652e-05
5.82011e-05
2.08309e-05
1.00488e-05
3.63312e-05
4.90886e-05
5.70093e-05
6.19045e-05
6.37536e-05
6.37744e-05
6.37905e-05
6.53343e-05
6.7361e-05
6.8861e-05
6.93242e-05
6.84869e-05
6.74051e-05
6.66707e-05
6.76742e-05
7.30891e-05
7.26286e-05
6.16255e-05
2.1366e-05
9.26059e-06
3.60651e-05
4.89001e-05
5.6878e-05
6.16111e-05
6.32563e-05
6.3381e-05
6.38848e-05
6.58538e-05
6.81363e-05
6.96152e-05
6.98503e-05
6.91945e-05
6.82477e-05
6.73393e-05
6.80817e-05
7.19678e-05
7.47813e-05
6.49339e-05
2.1764e-05
8.44219e-06
3.41616e-05
4.74505e-05
5.58365e-05
6.06629e-05
6.26677e-05
6.29566e-05
6.32763e-05
6.47674e-05
6.68441e-05
6.86099e-05
6.91452e-05
6.89152e-05
6.82245e-05
6.79285e-05
6.82333e-05
7.1642e-05
7.66269e-05
6.73458e-05
2.19542e-05
7.72521e-06
3.19079e-05
4.61167e-05
5.47202e-05
6.01126e-05
6.17769e-05
6.22847e-05
6.27714e-05
6.38878e-05
6.54246e-05
6.66503e-05
6.69582e-05
6.71371e-05
6.77048e-05
6.79907e-05
6.84825e-05
7.11742e-05
7.76327e-05
6.90567e-05
2.20327e-05
6.95353e-06
2.80426e-05
4.29945e-05
5.2032e-05
5.80799e-05
6.10135e-05
6.17197e-05
6.19215e-05
6.2455e-05
6.32644e-05
6.42187e-05
6.46782e-05
6.51655e-05
6.6304e-05
6.78323e-05
6.87299e-05
7.08333e-05
7.80724e-05
6.9728e-05
2.20431e-05
6.23323e-06
2.53504e-05
4.00817e-05
4.93622e-05
5.58586e-05
5.99815e-05
6.08261e-05
6.10389e-05
6.1237e-05
6.1531e-05
6.23976e-05
6.29893e-05
6.38377e-05
6.5494e-05
6.76891e-05
6.94807e-05
7.06868e-05
7.79787e-05
6.97271e-05
2.1969e-05
5.41934e-06
2.10272e-05
3.53393e-05
4.59079e-05
5.29514e-05
5.82463e-05
5.99319e-05
6.03346e-05
6.05368e-05
6.0567e-05
6.14879e-05
6.19732e-05
6.30298e-05
6.48365e-05
6.71184e-05
6.94398e-05
6.96928e-05
7.62373e-05
6.73509e-05
2.15539e-05
4.57725e-06
1.84044e-05
3.18065e-05
4.23392e-05
4.94835e-05
5.528e-05
5.86556e-05
5.96459e-05
6.01204e-05
6.00851e-05
6.0773e-05
6.11535e-05
6.19951e-05
6.34096e-05
6.51668e-05
6.84322e-05
6.7382e-05
7.29611e-05
6.44925e-05
2.08024e-05
3.64808e-06
1.3823e-05
2.68576e-05
3.86664e-05
4.60522e-05
5.13772e-05
5.56853e-05
5.71447e-05
5.77484e-05
5.77449e-05
5.80886e-05
5.83436e-05
5.88842e-05
5.97032e-05
6.06294e-05
6.49705e-05
6.39156e-05
6.82207e-05
5.91704e-05
1.95608e-05
2.43315e-06
1.14975e-05
2.53e-05
3.56134e-05
4.44584e-05
4.8077e-05
5.19088e-05
5.35722e-05
5.38306e-05
5.34499e-05
5.33082e-05
5.31783e-05
5.33248e-05
5.44731e-05
5.51988e-05
6.02863e-05
6.38988e-05
6.18985e-05
5.06204e-05
1.78896e-05
2.57979e-06
1.29556e-05
2.38082e-05
3.1388e-05
3.72371e-05
4.05646e-05
4.32589e-05
4.53423e-05
4.69107e-05
4.84481e-05
5.0316e-05
5.21284e-05
5.48575e-05
5.8518e-05
6.25764e-05
6.88649e-05
6.58351e-05
5.97203e-05
4.35646e-05
1.55465e-05
1.86356e-06
2.90638e-06
5.32628e-06
7.69955e-06
9.49738e-06
1.06217e-05
1.12544e-05
1.16461e-05
1.18334e-05
1.19612e-05
1.20176e-05
1.21314e-05
1.22398e-05
1.2482e-05
1.267e-05
1.31564e-05
1.37519e-05
1.44351e-05
1.42857e-05
1.27713e-05
)
;

boundaryField
{
    movingWall
    {
        type            nutkWallFunction;
        Cmu             0.09;
        kappa           0.41;
        E               9.8;
        value           uniform 0;
    }
    fixedWalls
    {
        type            nutkWallFunction;
        Cmu             0.09;
        kappa           0.41;
        E               9.8;
        value           uniform 0;
    }
    frontAndBack
    {
        type            empty;
    }
}


// ************************************************************************* //
