/*--------------------------------*- C++ -*----------------------------------*\
| =========                 |                                                 |
| \\      /  F ield         | OpenFOAM: The Open Source CFD Toolbox           |
|  \\    /   O peration     | Version:  5.0                                   |
|   \\  /    A nd           | Web:      www.OpenFOAM.org                      |
|    \\/     M anipulation  |                                                 |
\*---------------------------------------------------------------------------*/
FoamFile
{
    version     2.0;
    format      ascii;
    class       volScalarField;
    location    "8.5";
    object      p;
}
// * * * * * * * * * * * * * * * * * * * * * * * * * * * * * * * * * * * * * //

dimensions      [0 2 -2 0 0 0 0];

internalField   nonuniform List<scalar> 
400
(
4.26225e-08
-8.56416e-05
-0.000150845
-0.000397862
-0.0012691
-0.00273442
-0.00443562
-0.00605457
-0.00735613
-0.00821721
-0.00853239
-0.00821416
-0.00724969
-0.00562011
-0.00332651
-0.000502023
0.00255159
0.00524677
0.00692014
0.00728152
8.51608e-05
-1.69705e-05
-0.000246095
-0.000877956
-0.00201728
-0.00356698
-0.00523996
-0.00679072
-0.00804788
-0.00889298
-0.00923026
-0.00901362
-0.00819719
-0.0067312
-0.00463334
-0.00197763
0.00099163
0.00379792
0.00579777
0.00659854
0.000247021
-9.6695e-05
-0.000738372
-0.00180981
-0.00327801
-0.00494629
-0.00660402
-0.00809407
-0.00929834
-0.0100887
-0.0104038
-0.0102148
-0.00950026
-0.00824673
-0.00644781
-0.00414215
-0.00146936
0.00127023
0.00356781
0.00472826
-1.35166e-05
-0.000591661
-0.0016618
-0.00315403
-0.00488247
-0.00664203
-0.00827202
-0.00965928
-0.0107129
-0.0113854
-0.0116522
-0.0114947
-0.0108927
-0.00983946
-0.00833299
-0.00639657
-0.00410395
-0.00162633
0.000666671
0.00189653
-0.00085959
-0.00163558
-0.00300356
-0.00472774
-0.0065585
-0.00830479
-0.0098406
-0.0110918
-0.0120145
-0.0125921
-0.0128157
-0.0126784
-0.0121741
-0.0113019
-0.0100634
-0.00847387
-0.00657398
-0.00445488
-0.00237302
-0.0012092
-0.00225184
-0.00310993
-0.00457297
-0.00633103
-0.00812804
-0.00978229
-0.0111925
-0.0123123
-0.013124
-0.0136234
-0.0138108
-0.013689
-0.0132625
-0.0125377
-0.0115217
-0.0102272
-0.00868086
-0.0069375
-0.00524602
-0.00414484
-0.00385778
-0.00471763
-0.00612521
-0.00780035
-0.00948752
-0.0110137
-0.0122941
-0.013297
-0.0140164
-0.0144548
-0.0146175
-0.0145116
-0.0141465
-0.0135344
-0.0126891
-0.0116254
-0.0103683
-0.00895868
-0.00764079
-0.00666024
-0.00534966
-0.00616117
-0.00745593
-0.00901135
-0.0105681
-0.0119663
-0.0131319
-0.0140402
-0.0146897
-0.0150852
-0.0152338
-0.0151435
-0.0148249
-0.0142938
-0.0135708
-0.0126765
-0.0116402
-0.0104972
-0.00948816
-0.00862003
-0.00650686
-0.00726543
-0.00844053
-0.0098844
-0.011326
-0.0126209
-0.0137011
-0.0145435
-0.0151467
-0.0155159
-0.0156576
-0.0155793
-0.0152916
-0.0148121
-0.0141672
-0.0133856
-0.0125102
-0.0115515
-0.0107658
-0.00999893
-0.00724825
-0.0079235
-0.00900965
-0.0103774
-0.0117377
-0.0129679
-0.0139993
-0.0148069
-0.0153872
-0.0157441
-0.0158834
-0.0158115
-0.0155388
-0.0150837
-0.0144775
-0.0137547
-0.0129909
-0.0121241
-0.0115241
-0.0107828
-0.00753117
-0.00812662
-0.00915804
-0.0104768
-0.0117967
-0.0130035
-0.0140241
-0.0148277
-0.0154073
-0.0157649
-0.0159051
-0.0158333
-0.0155599
-0.0151036
-0.0145001
-0.0137826
-0.0130948
-0.01221
-0.011801
-0.0109723
-0.00734652
-0.0078986
-0.00889387
-0.0101905
-0.0115086
-0.0127281
-0.0137719
-0.014601
-0.0152021
-0.0155737
-0.0157184
-0.0156408
-0.0153514
-0.0148696
-0.0142349
-0.0134996
-0.0127855
-0.0118546
-0.0116409
-0.0105541
-0.00677164
-0.00730692
-0.00827648
-0.00954836
-0.0108884
-0.0121482
-0.013244
-0.0141256
-0.0147699
-0.0151695
-0.0153241
-0.0152363
-0.0149172
-0.0143876
-0.0136934
-0.0128931
-0.0120988
-0.0111277
-0.0110022
-0.00955477
-0.00593458
-0.00643857
-0.0073666
-0.00859626
-0.00995397
-0.0112707
-0.0124431
-0.0134033
-0.0141138
-0.0145578
-0.0147303
-0.0146314
-0.0142721
-0.0136755
-0.0128943
-0.0119878
-0.0110821
-0.0100423
-0.00987565
-0.00804776
-0.00500577
-0.00543477
-0.00625686
-0.00740221
-0.00875089
-0.0101273
-0.0113939
-0.0124553
-0.013254
-0.0137603
-0.0139628
-0.0138574
-0.0134535
-0.0127758
-0.0118849
-0.0108366
-0.00978141
-0.00859964
-0.00828512
-0.00606813
-0.00417601
-0.00442257
-0.00502194
-0.00601583
-0.0073258
-0.00875867
-0.0101325
-0.0113155
-0.0122255
-0.0128155
-0.0130659
-0.0129686
-0.0125309
-0.0117709
-0.0107553
-0.00952918
-0.00826162
-0.00682479
-0.00621834
-0.00341174
-0.00362446
-0.00353263
-0.00378038
-0.00455495
-0.00579683
-0.00727586
-0.00876085
-0.0100789
-0.0111198
-0.0118157
-0.0121363
-0.0120668
-0.0116209
-0.0107916
-0.00964368
-0.008194
-0.00660345
-0.00471729
-0.00345249
0.000735897
-0.00336017
-0.00275622
-0.00258378
-0.00311823
-0.00427988
-0.00579042
-0.00737844
-0.00883829
-0.0100281
-0.0108545
-0.0112731
-0.0112589
-0.0108246
-0.00995909
-0.00869032
-0.00697004
-0.00490377
-0.00219001
0.000606036
0.00816789
-0.00331064
-0.00210824
-0.00164069
-0.00199355
-0.00307909
-0.00460983
-0.00628602
-0.00787229
-0.00919731
-0.0101533
-0.0106803
-0.010751
-0.0103496
-0.00945589
-0.00805061
-0.00603535
-0.00332086
0.000979267
0.00712849
0.0201662
-0.0038415
-0.000748721
-0.000165385
-0.000694248
-0.00182776
-0.00341294
-0.00520165
-0.00692069
-0.00837651
-0.009445
-0.0100623
-0.0101909
-0.00980948
-0.00889214
-0.0073976
-0.0051567
-0.0013186
0.00559742
0.017609
0.0355732
)
;

boundaryField
{
    movingWall
    {
        type            zeroGradient;
    }
    fixedWalls
    {
        type            zeroGradient;
    }
    frontAndBack
    {
        type            empty;
    }
}


// ************************************************************************* //
