/*--------------------------------*- C++ -*----------------------------------*\
| =========                 |                                                 |
| \\      /  F ield         | OpenFOAM: The Open Source CFD Toolbox           |
|  \\    /   O peration     | Version:  5.0                                   |
|   \\  /    A nd           | Web:      www.OpenFOAM.org                      |
|    \\/     M anipulation  |                                                 |
\*---------------------------------------------------------------------------*/
FoamFile
{
    version     2.0;
    format      ascii;
    class       surfaceScalarField;
    location    "8.5";
    object      phi;
}
// * * * * * * * * * * * * * * * * * * * * * * * * * * * * * * * * * * * * * //

dimensions      [0 3 -1 0 0 0 0];

internalField   nonuniform List<scalar> 
760
(
1.19774e-07
-1.19778e-07
-1.52568e-07
2.72341e-07
-9.85605e-07
8.33037e-07
-2.29429e-06
1.30869e-06
-3.6832e-06
1.38891e-06
-4.91999e-06
1.23679e-06
-5.96546e-06
1.04547e-06
-6.79357e-06
8.28107e-07
-7.40013e-06
6.06565e-07
-7.80245e-06
4.02312e-07
-8.01374e-06
2.11289e-07
-8.02407e-06
1.0333e-08
-7.8285e-06
-1.95571e-07
-7.42592e-06
-4.02577e-07
-6.74941e-06
-6.76508e-07
-5.77395e-06
-9.75466e-07
-4.44457e-06
-1.32938e-06
-2.80444e-06
-1.64013e-06
-1.07522e-06
-1.72922e-06
-1.07522e-06
-3.97976e-07
2.78198e-07
-1.39452e-06
1.26889e-06
-2.752e-06
2.19052e-06
-3.99546e-06
2.55214e-06
-5.05844e-06
2.45189e-06
-5.99167e-06
2.17002e-06
-6.75249e-06
1.80629e-06
-7.34872e-06
1.42434e-06
-7.79517e-06
1.05302e-06
-8.08557e-06
6.92709e-07
-8.20528e-06
3.30997e-07
-8.15273e-06
-4.22162e-08
-7.94606e-06
-4.02242e-07
-7.54478e-06
-8.03851e-07
-6.94538e-06
-1.27591e-06
-6.1005e-06
-1.82035e-06
-4.97268e-06
-2.4572e-06
-3.50039e-06
-3.11242e-06
-1.71857e-06
-3.51103e-06
-2.79379e-06
-9.95673e-07
1.27387e-06
-2.31174e-06
2.58496e-06
-3.47354e-06
3.35231e-06
-4.43575e-06
3.51435e-06
-5.24851e-06
3.26465e-06
-5.91934e-06
2.84085e-06
-6.44548e-06
2.33243e-06
-6.81842e-06
1.79728e-06
-7.05786e-06
1.29246e-06
-7.16682e-06
8.01668e-07
-7.16776e-06
3.31943e-07
-7.07185e-06
-1.38133e-07
-6.86055e-06
-6.1354e-07
-6.51927e-06
-1.14513e-06
-6.03519e-06
-1.75998e-06
-5.37267e-06
-2.48288e-06
-4.50038e-06
-3.32948e-06
-3.35206e-06
-4.26074e-06
-1.84792e-06
-5.01517e-06
-4.64172e-06
-1.22416e-06
2.49803e-06
-2.42937e-06
3.79016e-06
-3.40145e-06
4.32439e-06
-4.15584e-06
4.26874e-06
-4.75017e-06
3.85898e-06
-5.19967e-06
3.29035e-06
-5.52025e-06
2.65301e-06
-5.73856e-06
2.01558e-06
-5.86287e-06
1.41677e-06
-5.90832e-06
8.47113e-07
-5.87656e-06
3.00187e-07
-5.7701e-06
-2.44594e-07
-5.57632e-06
-8.07315e-07
-5.29395e-06
-1.42751e-06
-4.91297e-06
-2.14096e-06
-4.4089e-06
-2.98694e-06
-3.74669e-06
-3.9917e-06
-2.86766e-06
-5.13977e-06
-1.64026e-06
-6.24257e-06
-6.28198e-06
-1.1566e-06
3.65463e-06
-2.17502e-06
4.80858e-06
-2.96224e-06
5.11162e-06
-3.55321e-06
4.85971e-06
-3.98821e-06
4.29398e-06
-4.29403e-06
3.59617e-06
-4.50041e-06
2.8594e-06
-4.63275e-06
2.14792e-06
-4.69785e-06
1.48187e-06
-4.70342e-06
8.52686e-07
-4.65053e-06
2.47298e-07
-4.53985e-06
-3.55268e-07
-4.36773e-06
-9.79435e-07
-4.1357e-06
-1.65954e-06
-3.8403e-06
-2.43636e-06
-3.46746e-06
-3.35979e-06
-2.98215e-06
-4.47701e-06
-2.31704e-06
-5.80488e-06
-1.37152e-06
-7.18809e-06
-7.6535e-06
-9.5226e-07
4.60689e-06
-1.76551e-06
5.62184e-06
-2.38794e-06
5.73405e-06
-2.8421e-06
5.31386e-06
-3.16258e-06
4.61446e-06
-3.37936e-06
3.81295e-06
-3.52169e-06
3.00173e-06
-3.60746e-06
2.23369e-06
-3.6434e-06
1.5178e-06
-3.63374e-06
8.43027e-07
-3.57907e-06
1.92629e-07
-3.47876e-06
-4.55577e-07
-3.33203e-06
-1.12617e-06
-3.14153e-06
-1.85005e-06
-2.91022e-06
-2.66767e-06
-2.63585e-06
-3.63416e-06
-2.30145e-06
-4.81142e-06
-1.84099e-06
-6.26533e-06
-1.10823e-06
-7.92085e-06
-8.76173e-06
-7.21837e-07
5.32873e-06
-1.32469e-06
6.22469e-06
-1.78918e-06
6.19853e-06
-2.12476e-06
5.64944e-06
-2.35975e-06
4.84946e-06
-2.51861e-06
3.97181e-06
-2.62328e-06
3.1064e-06
-2.68602e-06
2.29644e-06
-2.71268e-06
1.54446e-06
-2.70567e-06
8.36022e-07
-2.66386e-06
1.50819e-07
-2.58514e-06
-5.34304e-07
-2.46833e-06
-1.24297e-06
-2.31658e-06
-2.0018e-06
-2.1375e-06
-2.84674e-06
-1.93685e-06
-3.83481e-06
-1.7073e-06
-5.04096e-06
-1.39548e-06
-6.57716e-06
-9.07106e-07
-8.40922e-06
-9.66883e-06
-4.69967e-07
5.7987e-06
-8.90179e-07
6.6449e-06
-1.20983e-06
6.51818e-06
-1.44325e-06
5.88286e-06
-1.60979e-06
5.016e-06
-1.72625e-06
4.08827e-06
-1.80654e-06
3.18669e-06
-1.85806e-06
2.34796e-06
-1.8847e-06
1.57111e-06
-1.88731e-06
8.38632e-07
-1.86377e-06
1.27277e-07
-1.81142e-06
-5.86652e-07
-1.72878e-06
-1.32562e-06
-1.61865e-06
-2.11193e-06
-1.49078e-06
-2.97461e-06
-1.35727e-06
-3.96833e-06
-1.2168e-06
-5.18143e-06
-1.02633e-06
-6.76763e-06
-7.01161e-07
-8.73439e-06
-1.037e-05
-2.51793e-07
6.05049e-06
-4.84845e-07
6.87796e-06
-6.65307e-07
6.69864e-06
-8.06704e-07
6.02425e-06
-9.12847e-07
5.12214e-06
-9.92991e-07
4.16841e-06
-1.05328e-06
3.24698e-06
-1.09656e-06
2.39123e-06
-1.12443e-06
1.59897e-06
-1.13673e-06
8.50937e-07
-1.13163e-06
1.22178e-07
-1.10692e-06
-6.1136e-07
-1.06147e-06
-1.37107e-06
-9.97812e-07
-2.17559e-06
-9.25662e-07
-3.04676e-06
-8.59571e-07
-4.03442e-06
-8.03117e-07
-5.23789e-06
-7.22261e-07
-6.84849e-06
-5.56508e-07
-8.90014e-06
-1.09265e-05
-2.63647e-08
6.07685e-06
-1.02263e-07
6.95386e-06
-1.61842e-07
6.75822e-06
-2.11707e-07
6.07412e-06
-2.56939e-07
5.16737e-06
-2.99426e-07
4.2109e-06
-3.38296e-07
3.28585e-06
-3.71678e-07
2.42462e-06
-3.98699e-07
1.62599e-06
-4.18781e-07
8.71019e-07
-4.31101e-07
1.34499e-07
-4.34568e-07
-6.07894e-07
-4.28975e-07
-1.37666e-06
-4.16502e-07
-2.18806e-06
-4.06173e-07
-3.05709e-06
-4.08132e-07
-4.03246e-06
-4.46062e-07
-5.19996e-06
-4.66429e-07
-6.82812e-06
-4.17234e-07
-8.94933e-06
-1.13437e-05
1.8298e-07
5.89387e-06
2.77027e-07
6.85981e-06
3.448e-07
6.69045e-06
3.71787e-07
6.04713e-06
3.82249e-07
5.15691e-06
3.77631e-07
4.21552e-06
3.62942e-07
3.30054e-06
3.42681e-07
2.44488e-06
3.1927e-07
1.64941e-06
2.93323e-07
8.96966e-07
2.64483e-07
1.63339e-07
2.32365e-07
-5.75776e-07
1.9596e-07
-1.34026e-06
1.53125e-07
-2.14523e-06
9.69664e-08
-3.00093e-06
-2.14989e-10
-3.93528e-06
-1.07011e-07
-5.09316e-06
-2.46191e-07
-6.68894e-06
-3.20774e-07
-8.87475e-06
-1.16645e-05
3.81455e-07
5.51242e-06
6.34293e-07
6.60697e-06
8.22239e-07
6.5025e-06
9.39012e-07
5.93036e-06
1.01357e-06
5.08236e-06
1.05454e-06
4.17454e-06
1.0706e-06
3.28448e-06
1.06861e-06
2.44687e-06
1.05227e-06
1.66574e-06
1.02236e-06
9.26875e-07
9.77312e-07
2.08391e-07
9.15206e-07
-5.1367e-07
8.3324e-07
-1.25829e-06
7.28778e-07
-2.04076e-06
5.95001e-07
-2.86715e-06
4.28542e-07
-3.76882e-06
2.05078e-07
-4.8697e-06
-6.07594e-08
-6.4231e-06
-2.12661e-07
-8.72285e-06
-1.18772e-05
5.75641e-07
4.93678e-06
9.82637e-07
6.19997e-06
1.28829e-06
6.19685e-06
1.50063e-06
5.71803e-06
1.64697e-06
4.93601e-06
1.74325e-06
4.07827e-06
1.79926e-06
3.22848e-06
1.82291e-06
2.42321e-06
1.81883e-06
1.66983e-06
1.78798e-06
9.57724e-07
1.72771e-06
2.68661e-07
1.63506e-06
-4.2102e-07
1.50541e-06
-1.12865e-06
1.33483e-06
-1.87018e-06
1.11939e-06
-2.65172e-06
8.54899e-07
-3.50432e-06
5.1702e-07
-4.53182e-06
1.55572e-07
-6.06165e-06
-8.37345e-08
-8.48354e-06
-1.19609e-05
7.4271e-07
4.19407e-06
1.29354e-06
5.64914e-06
1.71367e-06
5.77671e-06
2.03957e-06
5.39213e-06
2.27671e-06
4.69887e-06
2.4446e-06
3.91038e-06
2.55466e-06
3.11841e-06
2.61538e-06
2.3625e-06
2.63181e-06
1.65339e-06
2.60516e-06
9.84376e-07
2.53209e-06
3.41733e-07
2.40814e-06
-2.97068e-07
2.2284e-06
-9.48903e-07
1.98725e-06
-1.62904e-06
1.68102e-06
-2.34548e-06
1.30949e-06
-3.1328e-06
8.59346e-07
-4.08168e-06
4.02825e-07
-5.60513e-06
7.05405e-08
-8.15126e-06
-1.18904e-05
8.84265e-07
3.3098e-06
1.55904e-06
4.97437e-06
2.10024e-06
5.23551e-06
2.55056e-06
4.9418e-06
2.89731e-06
4.35212e-06
3.15432e-06
3.65337e-06
3.33406e-06
2.93868e-06
3.44518e-06
2.25137e-06
3.49256e-06
1.60602e-06
3.47767e-06
9.99265e-07
3.39648e-06
4.22919e-07
3.24192e-06
-1.42501e-07
3.01124e-06
-7.18226e-07
2.69666e-06
-1.31445e-06
2.29336e-06
-1.94218e-06
1.80977e-06
-2.64921e-06
1.23818e-06
-3.51009e-06
6.67625e-07
-5.03458e-06
2.11292e-07
-7.69492e-06
-1.16791e-05
8.97742e-07
2.41206e-06
1.6829e-06
4.18922e-06
2.37167e-06
4.54674e-06
2.96966e-06
4.34381e-06
3.4568e-06
3.86499e-06
3.83244e-06
3.27773e-06
4.10614e-06
2.66497e-06
4.2873e-06
2.07021e-06
4.38064e-06
1.51268e-06
4.38851e-06
9.91392e-07
4.30837e-06
5.03058e-07
4.13114e-06
3.47289e-08
3.85327e-06
-4.40354e-07
3.46916e-06
-9.30347e-07
2.97098e-06
-1.444e-06
2.37739e-06
-2.05561e-06
1.68049e-06
-2.81319e-06
9.88993e-07
-4.34308e-06
4.08385e-07
-7.11432e-06
-1.12707e-05
8.08888e-07
1.60317e-06
1.67229e-06
3.32582e-06
2.52346e-06
3.69556e-06
3.28598e-06
3.5813e-06
3.93028e-06
3.22068e-06
4.44733e-06
2.76069e-06
4.83606e-06
2.27624e-06
5.10438e-06
1.80189e-06
5.25756e-06
1.3595e-06
5.29943e-06
9.49521e-07
5.22991e-06
5.72583e-07
5.0509e-06
2.13741e-07
4.74255e-06
-1.32008e-07
4.31532e-06
-5.03115e-07
3.75009e-06
-8.7878e-07
3.07052e-06
-1.37604e-06
2.27197e-06
-2.01464e-06
1.45791e-06
-3.52902e-06
6.86447e-07
-6.34285e-06
-1.05842e-05
3.12993e-07
1.29018e-06
1.30718e-06
2.33163e-06
2.34989e-06
2.65286e-06
3.32021e-06
2.61097e-06
4.15735e-06
2.38355e-06
4.84501e-06
2.07303e-06
5.38042e-06
1.74083e-06
5.7667e-06
1.41561e-06
6.01251e-06
1.11368e-06
6.12503e-06
8.37006e-07
6.10905e-06
5.88556e-07
5.97322e-06
3.49581e-07
5.71329e-06
1.27919e-07
5.32394e-06
-1.13763e-07
4.7787e-06
-3.33542e-07
4.10311e-06
-7.00452e-07
3.27151e-06
-1.18304e-06
2.36861e-06
-2.62612e-06
1.22149e-06
-5.19573e-06
-9.36275e-06
-5.29678e-07
1.81986e-06
5.63045e-07
1.23891e-06
1.91827e-06
1.29763e-06
3.16775e-06
1.36149e-06
4.24822e-06
1.30307e-06
5.1557e-06
1.16554e-06
5.89337e-06
1.00316e-06
6.45763e-06
8.51359e-07
6.8666e-06
7.04706e-07
7.12731e-06
5.76299e-07
7.26174e-06
4.54123e-07
7.26553e-06
3.45789e-07
7.15331e-06
2.40139e-07
6.90813e-06
1.31427e-07
6.55212e-06
2.24667e-08
6.0692e-06
-2.1754e-07
5.40531e-06
-5.19146e-07
4.48183e-06
-1.70264e-06
2.64477e-06
-3.35867e-06
-6.71798e-06
1.81986e-06
3.05877e-06
4.35639e-06
5.71788e-06
7.02096e-06
8.1865e-06
9.18966e-06
1.0041e-05
1.07457e-05
1.1322e-05
1.17762e-05
1.21219e-05
1.23621e-05
1.24935e-05
1.2516e-05
1.22984e-05
1.17793e-05
1.00766e-05
6.71798e-06
)
;

boundaryField
{
    movingWall
    {
        type            calculated;
        value           uniform 0;
    }
    fixedWalls
    {
        type            calculated;
        value           uniform 0;
    }
    frontAndBack
    {
        type            empty;
        value           nonuniform 0();
    }
}


// ************************************************************************* //
