/*--------------------------------*- C++ -*----------------------------------*\
| =========                 |                                                 |
| \\      /  F ield         | OpenFOAM: The Open Source CFD Toolbox           |
|  \\    /   O peration     | Version:  5.0                                   |
|   \\  /    A nd           | Web:      www.OpenFOAM.org                      |
|    \\/     M anipulation  |                                                 |
\*---------------------------------------------------------------------------*/
FoamFile
{
    version     2.0;
    format      ascii;
    class       volVectorField;
    location    "8.5";
    object      U;
}
// * * * * * * * * * * * * * * * * * * * * * * * * * * * * * * * * * * * * * //

dimensions      [0 1 -1 0 0 0 0];

internalField   nonuniform List<vector> 
400
(
(0.00261857 -0.00307126 0)
(0.00170152 -0.000450804 0)
(-0.00706498 0.00401105 0)
(-0.0296717 0.0113652 0)
(-0.0627125 0.0142524 0)
(-0.0886976 0.012257 0)
(-0.112246 0.0105137 0)
(-0.12991 0.00813846 0)
(-0.144059 0.00618843 0)
(-0.15361 0.00395468 0)
(-0.159275 0.0021863 0)
(-0.161442 0.000286891 0)
(-0.159971 -0.00283967 0)
(-0.15313 -0.00495254 0)
(-0.141891 -0.00831282 0)
(-0.12424 -0.0112547 0)
(-0.100765 -0.0146995 0)
(-0.0709813 -0.0166823 0)
(-0.0380212 -0.0151189 0)
(-0.00918274 -0.00422769 0)
(-0.00217444 -0.00164058 0)
(-0.0134024 0.0123525 0)
(-0.0400157 0.0313044 0)
(-0.068475 0.0404283 0)
(-0.092893 0.0392019 0)
(-0.112855 0.0350117 0)
(-0.12977 0.0294543 0)
(-0.142216 0.0236805 0)
(-0.152899 0.0170725 0)
(-0.159862 0.0112489 0)
(-0.164051 0.00550306 0)
(-0.164669 -0.000149863 0)
(-0.161962 -0.00638987 0)
(-0.155686 -0.0132811 0)
(-0.145371 -0.021626 0)
(-0.130171 -0.0311177 0)
(-0.109831 -0.0419701 0)
(-0.083986 -0.0517121 0)
(-0.0523946 -0.0544968 0)
(-0.0193712 -0.0358263 0)
(-0.00832659 0.0143576 0)
(-0.0321922 0.0406151 0)
(-0.0586309 0.0568427 0)
(-0.0808396 0.0609705 0)
(-0.0987615 0.057065 0)
(-0.11335 0.0497431 0)
(-0.125008 0.0407981 0)
(-0.133835 0.0314508 0)
(-0.139892 0.0230804 0)
(-0.142915 0.0146699 0)
(-0.144006 0.0064077 0)
(-0.1429 -0.00202284 0)
(-0.140093 -0.0108142 0)
(-0.134389 -0.0204844 0)
(-0.126048 -0.0317073 0)
(-0.114183 -0.0449309 0)
(-0.0983243 -0.0604853 0)
(-0.0779232 -0.077453 0)
(-0.0513341 -0.0899162 0)
(-0.0220399 -0.0786042 0)
(-0.012371 0.0382889 0)
(-0.0376623 0.0644797 0)
(-0.0604332 0.0770064 0)
(-0.0774868 0.0776981 0)
(-0.0906763 0.0711663 0)
(-0.100809 0.0612958 0)
(-0.108192 0.0498688 0)
(-0.113395 0.0382184 0)
(-0.116543 0.0270737 0)
(-0.118172 0.0163615 0)
(-0.118309 0.0061617 0)
(-0.116916 -0.00405466 0)
(-0.113943 -0.0147333 0)
(-0.109128 -0.026538 0)
(-0.102448 -0.0401305 0)
(-0.093491 -0.0561899 0)
(-0.081538 -0.0751043 0)
(-0.065675 -0.0962904 0)
(-0.0439423 -0.1154 0)
(-0.0199928 -0.113358 0)
(-0.012478 0.0608384 0)
(-0.0354023 0.0855932 0)
(-0.053633 0.093975 0)
(-0.0669631 0.0911586 0)
(-0.0767993 0.0816338 0)
(-0.083797 0.0690729 0)
(-0.0885775 0.0553393 0)
(-0.0917915 0.0418066 0)
(-0.0936473 0.029034 0)
(-0.0943364 0.0169714 0)
(-0.0938548 0.005416 0)
(-0.0922145 -0.00611013 0)
(-0.0893853 -0.0180806 0)
(-0.085314 -0.031215 0)
(-0.0799954 -0.0463229 0)
(-0.0733087 -0.0643365 0)
(-0.0647059 -0.0860598 0)
(-0.0527912 -0.111512 0)
(-0.0355604 -0.136996 0)
(-0.0175939 -0.142573 0)
(-0.0105656 0.0816001 0)
(-0.0292991 0.103729 0)
(-0.0435461 0.108143 0)
(-0.0539257 0.101723 0)
(-0.0611824 0.0892245 0)
(-0.0661243 0.0742728 0)
(-0.0694185 0.05877 0)
(-0.0715868 0.0439252 0)
(-0.0727454 0.0300474 0)
(-0.0729862 0.016953 0)
(-0.0723382 0.00434373 0)
(-0.0707878 -0.00820715 0)
(-0.0683114 -0.0211866 0)
(-0.064913 -0.035263 0)
(-0.0606487 -0.0512745 0)
(-0.0555579 -0.0702872 0)
(-0.0494747 -0.0934531 0)
(-0.0409737 -0.121644 0)
(-0.0298259 -0.152948 0)
(-0.0119518 -0.166331 0)
(-0.00862544 0.0987769 0)
(-0.022017 0.11817 0)
(-0.032823 0.119259 0)
(-0.0405075 0.109711 0)
(-0.0457397 0.0947703 0)
(-0.0492999 0.0779787 0)
(-0.0516951 0.0611917 0)
(-0.0532821 0.0453764 0)
(-0.0541366 0.0306492 0)
(-0.0543243 0.0167608 0)
(-0.0538414 0.00334684 0)
(-0.0526375 -0.0100373 0)
(-0.0506697 -0.0238687 0)
(-0.047954 -0.0387243 0)
(-0.0445933 -0.0553911 0)
(-0.0407165 -0.0750146 0)
(-0.0364631 -0.0989603 0)
(-0.0303805 -0.129135 0)
(-0.0239849 -0.164466 0)
(-0.00958049 -0.185836 0)
(-0.00569778 0.111343 0)
(-0.0146166 0.128933 0)
(-0.0223701 0.127454 0)
(-0.0276038 0.115552 0)
(-0.0312076 0.0988389 0)
(-0.0337338 0.0807378 0)
(-0.035512 0.0630257 0)
(-0.0367603 0.0464946 0)
(-0.0375166 0.0311558 0)
(-0.0378121 0.0166929 0)
(-0.0376128 0.00267233 0)
(-0.036853 -0.011372 0)
(-0.0354804 -0.0258935 0)
(-0.0335125 -0.0413751 0)
(-0.0310761 -0.0584747 0)
(-0.0283355 -0.0783379 0)
(-0.0257047 -0.102573 0)
(-0.0216563 -0.133949 0)
(-0.0193333 -0.172085 0)
(-0.00607344 -0.201281 0)
(-0.00349016 0.119156 0)
(-0.00777082 0.135629 0)
(-0.0124886 0.132571 0)
(-0.015473 0.11938 0)
(-0.0176704 0.1016 0)
(-0.0193186 0.0827112 0)
(-0.0205798 0.0644227 0)
(-0.0215601 0.0474272 0)
(-0.0222558 0.0316884 0)
(-0.0226642 0.0168349 0)
(-0.0227441 0.00238303 0)
(-0.022439 -0.0121484 0)
(-0.0217057 -0.0271893 0)
(-0.0205584 -0.0431424 0)
(-0.019144 -0.0605128 0)
(-0.0175816 -0.0803805 0)
(-0.0167223 -0.10459 0)
(-0.0141701 -0.136726 0)
(-0.015558 -0.176867 0)
(-0.00426527 -0.213725 0)
(-0.000109514 0.122268 0)
(-0.00130006 0.13936 0)
(-0.00323463 0.13532 0)
(-0.00405937 0.121465 0)
(-0.00493256 0.103231 0)
(-0.00571016 0.0839954 0)
(-0.00643742 0.0654356 0)
(-0.00711909 0.0481999 0)
(-0.00771178 0.0322414 0)
(-0.00818751 0.0171652 0)
(-0.00851238 0.00246291 0)
(-0.00865509 -0.0123559 0)
(-0.00859889 -0.0277031 0)
(-0.00835315 -0.0439187 0)
(-0.00808199 -0.0613662 0)
(-0.00774103 -0.0810013 0)
(-0.00894236 -0.104829 0)
(-0.00758138 -0.137243 0)
(-0.0125198 -0.178827 0)
(-0.0017998 -0.223322 0)
(0.00209816 0.120718 0)
(0.0045901 0.139122 0)
(0.00577858 0.135108 0)
(0.00691846 0.121575 0)
(0.00735441 0.103512 0)
(0.0075076 0.0844418 0)
(0.00738755 0.0659695 0)
(0.00707598 0.0487442 0)
(0.00665191 0.0327568 0)
(0.00615891 0.0176379 0)
(0.00561876 0.0028861 0)
(0.00503423 -0.01199 0)
(0.00438321 -0.0273896 0)
(0.00365669 -0.0436189 0)
(0.0026472 -0.0609163 0)
(0.00165182 -0.0800607 0)
(-0.00176683 -0.103438 0)
(-0.00144816 -0.135548 0)
(-0.0102047 -0.178783 0)
(-6.9252e-05 -0.230634 0)
(0.00411253 0.116022 0)
(0.0104104 0.136109 0)
(0.0140606 0.133077 0)
(0.0173964 0.120586 0)
(0.019376 0.102897 0)
(0.0206179 0.0842354 0)
(0.0212659 0.0660617 0)
(0.0214504 0.0490389 0)
(0.0212856 0.0332043 0)
(0.0208322 0.0182323 0)
(0.0201011 0.00365088 0)
(0.0190744 -0.0110254 0)
(0.017682 -0.0261917 0)
(0.0159279 -0.0421437 0)
(0.0135726 -0.0590297 0)
(0.0108954 -0.0774491 0)
(0.0052668 -0.100023 0)
(0.0046366 -0.13151 0)
(-0.00838116 -0.176533 0)
(0.0025775 -0.235542 0)
(0.00632474 0.106617 0)
(0.0158243 0.129266 0)
(0.0224177 0.127585 0)
(0.0276059 0.117037 0)
(0.031371 0.100552 0)
(0.0338673 0.0828028 0)
(0.0354652 0.0653386 0)
(0.0363157 0.0488499 0)
(0.0365411 0.0334485 0)
(0.0362131 0.0188833 0)
(0.0353304 0.00474246 0)
(0.0338701 -0.0094347 0)
(0.0316992 -0.0240255 0)
(0.0288612 -0.0393488 0)
(0.0249513 -0.055509 0)
(0.020534 -0.0731101 0)
(0.0126774 -0.0944123 0)
(0.010632 -0.125314 0)
(-0.00681238 -0.172463 0)
(0.00554515 -0.238424 0)
(0.008198 0.0936641 0)
(0.0206622 0.120655 0)
(0.0299476 0.121268 0)
(0.0372383 0.112313 0)
(0.0430624 0.0972965 0)
(0.0471885 0.0805996 0)
(0.0500475 0.0640083 0)
(0.0518282 0.0482548 0)
(0.0526471 0.0335112 0)
(0.0525848 0.0195974 0)
(0.0516242 0.00617412 0)
(0.049756 -0.00719106 0)
(0.0467589 -0.0208409 0)
(0.0427871 -0.0351341 0)
(0.0371435 -0.0502037 0)
(0.0309316 -0.0666666 0)
(0.0206049 -0.0865185 0)
(0.0169324 -0.117146 0)
(-0.00485249 -0.166698 0)
(0.00983227 -0.239416 0)
(0.00990286 0.0770061 0)
(0.0249137 0.107142 0)
(0.0366133 0.110676 0)
(0.0462639 0.103872 0)
(0.0543203 0.0910886 0)
(0.0604598 0.0761695 0)
(0.0649346 0.0610351 0)
(0.0679492 0.0465295 0)
(0.0696059 0.0329089 0)
(0.0699992 0.0200733 0)
(0.0690749 0.0077769 0)
(0.0668684 -0.00437376 0)
(0.0630165 -0.0166327 0)
(0.057912 -0.0294373 0)
(0.0503857 -0.0429634 0)
(0.0423665 -0.0579952 0)
(0.0292182 -0.0762755 0)
(0.0238984 -0.106885 0)
(-0.00249838 -0.159463 0)
(0.0149477 -0.239201 0)
(0.00999583 0.0579854 0)
(0.0269925 0.0937738 0)
(0.0408639 0.10017 0)
(0.0531341 0.0949963 0)
(0.0639897 0.0840661 0)
(0.0727782 0.0708953 0)
(0.0794298 0.0573294 0)
(0.0841256 0.0442631 0)
(0.0869642 0.0320138 0)
(0.0880918 0.0205336 0)
(0.0873805 0.00968208 0)
(0.0850208 -0.000927798 0)
(0.0803833 -0.0113922 0)
(0.0742873 -0.0222802 0)
(0.0648435 -0.0337831 0)
(0.05518 -0.047078 0)
(0.0390165 -0.0635407 0)
(0.0322341 -0.0945148 0)
(0.00068743 -0.150114 0)
(0.0217183 -0.236808 0)
(0.00852706 0.0386896 0)
(0.0262148 0.0735624 0)
(0.0424623 0.0824211 0)
(0.0577173 0.0798199 0)
(0.0716909 0.0716209 0)
(0.0835687 0.0611777 0)
(0.0928584 0.0500849 0)
(0.0996342 0.0392779 0)
(0.103944 0.0291811 0)
(0.106089 0.0197772 0)
(0.105756 0.0110269 0)
(0.103567 0.00255444 0)
(0.0984079 -0.00565252 0)
(0.09185 -0.0141577 0)
(0.0809075 -0.0230406 0)
(0.070308 -0.0341915 0)
(0.0513832 -0.0482778 0)
(0.0437341 -0.0798643 0)
(0.00596099 -0.138718 0)
(0.0308613 -0.229075 0)
(-0.00255545 0.0243199 0)
(0.0175033 0.0597927 0)
(0.0368442 0.0676684 0)
(0.0562169 0.0659698 0)
(0.0742397 0.059602 0)
(0.0897767 0.0514923 0)
(0.102231 0.0430215 0)
(0.111711 0.0346071 0)
(0.118098 0.0267318 0)
(0.121982 0.0194872 0)
(0.122781 0.0129172 0)
(0.121705 0.00673595 0)
(0.117121 0.000985306 0)
(0.111675 -0.00504991 0)
(0.100844 -0.0111649 0)
(0.0911811 -0.019722 0)
(0.0708287 -0.0312283 0)
(0.063321 -0.0628143 0)
(0.0189451 -0.122233 0)
(0.0463948 -0.206338 0)
(-0.0149775 0.0297401 0)
(-0.00202633 0.0283623 0)
(0.0251583 0.0336498 0)
(0.0507478 0.0351956 0)
(0.0737566 0.033228 0)
(0.0937811 0.0292574 0)
(0.110407 0.0247323 0)
(0.12374 0.0203519 0)
(0.133512 0.0163011 0)
(0.140543 0.0125436 0)
(0.144272 0.00924979 0)
(0.146037 0.00598549 0)
(0.144383 0.00325622 0)
(0.14158 -0.000328556 0)
(0.133908 -0.00333248 0)
(0.127489 -0.00945285 0)
(0.110221 -0.0184433 0)
(0.104289 -0.0461231 0)
(0.0583669 -0.0937558 0)
(0.0780256 -0.157278 0)
(0.0395803 0.0380419 0)
(0.0457123 0.0273317 0)
(0.069953 0.0244863 0)
(0.100093 0.0246573 0)
(0.126643 0.023814 0)
(0.151098 0.0218893 0)
(0.172815 0.0193807 0)
(0.191932 0.017147 0)
(0.207665 0.01482 0)
(0.220995 0.0130175 0)
(0.231148 0.0110472 0)
(0.23946 0.00968596 0)
(0.24487 0.00790146 0)
(0.248771 0.00677922 0)
(0.249789 0.0047447 0)
(0.247555 0.0022138 0)
(0.23879 0.00181345 0)
(0.223598 -0.0101032 0)
(0.173975 -0.0131543 0)
(0.146172 -0.0642141 0)
)
;

boundaryField
{
    movingWall
    {
        type            fixedValue;
        value           uniform (1 0 0);
    }
    fixedWalls
    {
        type            noSlip;
    }
    frontAndBack
    {
        type            empty;
    }
}


// ************************************************************************* //
