/*--------------------------------*- C++ -*----------------------------------*\
| =========                 |                                                 |
| \\      /  F ield         | OpenFOAM: The Open Source CFD Toolbox           |
|  \\    /   O peration     | Version:  5.0                                   |
|   \\  /    A nd           | Web:      www.OpenFOAM.org                      |
|    \\/     M anipulation  |                                                 |
\*---------------------------------------------------------------------------*/
FoamFile
{
    version     2.0;
    format      ascii;
    class       volScalarField;
    location    "3.5";
    object      epsilon;
}
// * * * * * * * * * * * * * * * * * * * * * * * * * * * * * * * * * * * * * //

dimensions      [0 2 -3 0 0 0 0];

internalField   nonuniform List<scalar> 
400
(
8.39202e-06
1.88855e-05
3.15522e-05
0.000112887
0.000378531
0.000680848
0.00084707
0.000989926
0.00110986
0.00121979
0.00132256
0.00142323
0.00152352
0.00159419
0.00162571
0.00162992
0.00151699
0.0011887
0.000731933
0.000516867
3.57348e-05
5.15435e-05
0.000126544
0.000378364
0.000724615
0.000849614
0.000897987
0.000937344
0.000966402
0.00102665
0.00110333
0.00121086
0.00134199
0.00149696
0.00167241
0.00185252
0.00194219
0.00195279
0.00163141
0.00119543
0.000122143
0.00019072
0.000408311
0.000694053
0.000803404
0.000840546
0.000858373
0.00086995
0.000916685
0.000985401
0.00107023
0.00117429
0.00129296
0.00143355
0.00160059
0.00179508
0.00197858
0.0020577
0.0019761
0.00168736
0.000271094
0.00040225
0.00062512
0.000756467
0.000786392
0.000794468
0.00079487
0.000815861
0.000858124
0.000912457
0.000979535
0.00105887
0.00115993
0.00129142
0.0014683
0.00170137
0.0019761
0.00212417
0.0021439
0.00202222
0.000424221
0.000559942
0.000706491
0.00074525
0.000742031
0.000728939
0.000725827
0.000737046
0.000760586
0.000791507
0.00083339
0.00089262
0.000981133
0.00111493
0.00131839
0.00161408
0.00199639
0.00227375
0.00234333
0.00228638
0.000533682
0.000641707
0.000708117
0.000715799
0.000682535
0.000662365
0.000653239
0.000650348
0.000651499
0.000658165
0.000675721
0.00071415
0.00078863
0.000921955
0.00114915
0.0015102
0.00201769
0.00246506
0.00260435
0.00250427
0.00059325
0.000643966
0.000688154
0.000666443
0.00062616
0.000601719
0.000584634
0.000567846
0.000551294
0.000540754
0.000538362
0.000556881
0.000614387
0.000738114
0.000974655
0.00138817
0.00202475
0.00269276
0.00291998
0.00268794
0.000585955
0.00062398
0.000642682
0.000614421
0.00057563
0.000548608
0.00052588
0.000500542
0.00047356
0.000448725
0.000436403
0.000438352
0.000478236
0.000584906
0.0008143
0.00125651
0.00200244
0.00292925
0.00331413
0.00284009
0.000558985
0.000577978
0.000587942
0.000564496
0.000530593
0.000503645
0.000478704
0.000450166
0.000418928
0.000388526
0.000367037
0.000360364
0.000385057
0.000472366
0.000683354
0.00113116
0.0019578
0.00313192
0.00374408
0.00295937
0.000496781
0.000522949
0.000534622
0.0005192
0.000490994
0.000466083
0.000441724
0.000413822
0.000382903
0.000352041
0.0003268
0.000314759
0.000329434
0.000398796
0.000586071
0.0010214
0.00190784
0.00329442
0.00421456
0.0030507
0.000437008
0.000469308
0.000484442
0.000478373
0.000458351
0.00043526
0.000412553
0.000386997
0.000358717
0.000329936
0.000305114
0.00029262
0.000302711
0.000357505
0.00051985
0.000926917
0.00183419
0.00341163
0.00469573
0.00310747
0.000380363
0.000419106
0.000439193
0.000442374
0.000431508
0.000411638
0.000390167
0.000366588
0.000341156
0.000315352
0.000292826
0.000282578
0.000291517
0.000337684
0.000478755
0.00085181
0.00174373
0.00346766
0.0051632
0.00313446
0.000324431
0.000371526
0.000396764
0.000411676
0.000408143
0.000396157
0.000375564
0.000352646
0.000328729
0.000305264
0.00028527
0.000278545
0.00028793
0.000329345
0.000452384
0.000788914
0.00164278
0.00348436
0.00555194
0.00314276
0.000269771
0.000323748
0.000354647
0.000381515
0.000390561
0.000384886
0.000369969
0.000347503
0.000323494
0.000300621
0.000281836
0.000277833
0.00028778
0.000326977
0.000438839
0.000740701
0.00153344
0.00343792
0.00574116
0.00313455
0.000223554
0.000276999
0.00031399
0.000350517
0.000373467
0.000375646
0.000367573
0.000349117
0.000325353
0.0003024
0.00028388
0.000281516
0.000292174
0.000331413
0.000437785
0.000721283
0.00147067
0.00336136
0.00579252
0.00311399
0.000179925
0.000231543
0.000274793
0.000318832
0.000355438
0.000372624
0.000369721
0.000357077
0.000335059
0.000313798
0.000299033
0.000301166
0.000318186
0.00036809
0.000485967
0.000770277
0.00146882
0.00332666
0.00547585
0.00309181
0.000159434
0.000191231
0.000255901
0.000319245
0.000365146
0.000391759
0.000398159
0.000394586
0.000384861
0.000377552
0.000381773
0.000402744
0.000452811
0.000554687
0.000725591
0.00108238
0.00178086
0.00352016
0.00493821
0.00303013
0.000179134
0.000202569
0.000310673
0.000406844
0.000488026
0.000551329
0.000597495
0.000637462
0.000679051
0.000736184
0.000819664
0.000943489
0.00112459
0.00139614
0.00174134
0.00237955
0.00309365
0.00447095
0.00465893
0.00294698
0.000271431
0.000310378
0.000639909
0.000949498
0.00121786
0.00146522
0.00169841
0.00195295
0.00222292
0.00255212
0.00294206
0.00342115
0.00401555
0.00473047
0.00552488
0.00658629
0.00656938
0.00603631
0.00480197
0.00277486
0.000214061
0.000349324
0.000641859
0.000931487
0.00119389
0.00140479
0.00159939
0.00174124
0.00189953
0.00199884
0.00215049
0.0022334
0.0023997
0.00249041
0.00267558
0.00276682
0.00288638
0.00292677
0.00286838
0.00255043
)
;

boundaryField
{
    movingWall
    {
        Cmu             0.09;
        kappa           0.41;
        E               9.8;
        type            epsilonWallFunction;
        value           nonuniform List<scalar> 
20
(
0.000214061
0.000349324
0.000641859
0.000931487
0.00119389
0.00140479
0.00159939
0.00174124
0.00189953
0.00199884
0.00215049
0.0022334
0.0023997
0.00249041
0.00267558
0.00276682
0.00288638
0.00292677
0.00286838
0.00255043
)
;
    }
    fixedWalls
    {
        Cmu             0.09;
        kappa           0.41;
        E               9.8;
        type            epsilonWallFunction;
        value           nonuniform List<scalar> 
60
(
8.39202e-06
3.57348e-05
0.000122143
0.000271094
0.000424221
0.000533682
0.00059325
0.000585955
0.000558985
0.000496781
0.000437008
0.000380363
0.000324431
0.000269771
0.000223554
0.000179925
0.000159434
0.000179134
0.000271431
0.000214061
0.000516867
0.00119543
0.00168736
0.00202222
0.00228638
0.00250427
0.00268794
0.00284009
0.00295937
0.0030507
0.00310747
0.00313446
0.00314276
0.00313455
0.00311399
0.00309181
0.00303013
0.00294698
0.00277486
0.00255043
8.39202e-06
1.88855e-05
3.15522e-05
0.000112887
0.000378531
0.000680848
0.00084707
0.000989926
0.00110986
0.00121979
0.00132256
0.00142323
0.00152352
0.00159419
0.00162571
0.00162992
0.00151699
0.0011887
0.000731933
0.000516867
)
;
    }
    frontAndBack
    {
        type            empty;
    }
}


// ************************************************************************* //
