/*--------------------------------*- C++ -*----------------------------------*\
| =========                 |                                                 |
| \\      /  F ield         | OpenFOAM: The Open Source CFD Toolbox           |
|  \\    /   O peration     | Version:  5.0                                   |
|   \\  /    A nd           | Web:      www.OpenFOAM.org                      |
|    \\/     M anipulation  |                                                 |
\*---------------------------------------------------------------------------*/
FoamFile
{
    version     2.0;
    format      ascii;
    class       volScalarField;
    location    "3.5";
    object      k;
}
// * * * * * * * * * * * * * * * * * * * * * * * * * * * * * * * * * * * * * //

dimensions      [0 2 -2 0 0 0 0];

internalField   nonuniform List<scalar> 
400
(
2.61286e-06
5.87739e-06
9.89621e-06
3.57049e-05
0.000119146
0.000213075
0.000264696
0.000309285
0.00034662
0.000380958
0.000413004
0.000444449
0.000475746
0.000497798
0.000507632
0.000508946
0.000473658
0.000371111
0.000228513
0.000161402
1.11301e-05
3.95505e-05
6.17699e-05
0.000144997
0.000305695
0.000415938
0.000487794
0.000565939
0.000626215
0.000694655
0.000754436
0.000819432
0.000875275
0.000928082
0.000969392
0.000988319
0.000990998
0.000878108
0.000601003
0.000373257
3.8129e-05
0.000136922
0.00021341
0.000374437
0.000511011
0.000593005
0.000663219
0.000728581
0.000782437
0.000843085
0.000897108
0.0009511
0.00099948
0.00104669
0.00108765
0.00110702
0.00111106
0.00104025
0.000774822
0.000526872
8.47958e-05
0.000279547
0.000371229
0.000517918
0.000613934
0.000682015
0.000743708
0.000794919
0.000842238
0.000890764
0.000936751
0.00098156
0.00102494
0.00107258
0.0011256
0.00117187
0.0011869
0.00116205
0.000926085
0.000631412
0.000132845
0.000387867
0.000479353
0.000595179
0.000663794
0.000717308
0.000762863
0.000801446
0.000839758
0.000877944
0.000912762
0.000949027
0.000992967
0.0010495
0.00112383
0.00121241
0.00126483
0.00127103
0.00106628
0.00071386
0.000167182
0.000458875
0.000545448
0.000627474
0.000675928
0.000718285
0.000757696
0.000788295
0.000812935
0.000830857
0.000849664
0.000876739
0.000919078
0.000985058
0.00108528
0.00122207
0.00134643
0.00138277
0.00121152
0.000781893
0.000185933
0.000490558
0.000567083
0.000626188
0.000671858
0.000710096
0.000739848
0.000755235
0.000762144
0.00076568
0.000772441
0.000790064
0.00082815
0.000899387
0.00101965
0.001199
0.00140679
0.00149938
0.00135869
0.000839212
0.000183671
0.00048703
0.000562917
0.000617125
0.00065909
0.000690355
0.000708506
0.000713649
0.000710704
0.00070311
0.000699603
0.000707516
0.000739771
0.000811992
0.000944736
0.00115604
0.00143331
0.00160955
0.00151758
0.000886706
0.000175253
0.000473785
0.000549962
0.000597204
0.000634167
0.000661525
0.000674295
0.000674621
0.000665016
0.000649867
0.000638888
0.000638855
0.000665304
0.000736255
0.000875989
0.00111028
0.00144017
0.00170826
0.00167023
0.000923932
0.0001558
0.000447929
0.000524855
0.00056991
0.000603996
0.000628619
0.000640049
0.000638224
0.000626084
0.000607659
0.00059117
0.000586965
0.000608645
0.000677029
0.000818759
0.0010645
0.00143089
0.00179214
0.00182121
0.000952426
0.000137079
0.000411676
0.000494696
0.000540066
0.00057187
0.000594457
0.000605106
0.000602883
0.000591795
0.000572822
0.000555264
0.000551159
0.000569907
0.000634833
0.000775247
0.00102253
0.00140504
0.00184634
0.00196086
0.000970138
0.000119324
0.000369846
0.000462818
0.000510477
0.000541313
0.000561507
0.000570919
0.000568604
0.000559332
0.000542195
0.000527032
0.000526455
0.000545501
0.00060838
0.000744082
0.000985115
0.00137286
0.0018703
0.00208903
0.000978558
0.000101774
0.000325761
0.000429073
0.000482487
0.000515237
0.000534015
0.000541215
0.000538328
0.000529749
0.000515323
0.000505584
0.00050891
0.000531066
0.00059282
0.000720355
0.000946243
0.00132574
0.00187565
0.00218316
0.000981142
8.45709e-05
0.000281027
0.000394327
0.000457353
0.000495217
0.000514816
0.000520689
0.000517612
0.00050964
0.000497622
0.000493374
0.000499565
0.000524137
0.00058317
0.000698177
0.000902714
0.00125958
0.00184794
0.00222523
0.000978574
7.00078e-05
0.000241847
0.000358873
0.000430793
0.000478449
0.000508027
0.000519129
0.000516525
0.00050873
0.000496533
0.000493406
0.000499791
0.000523277
0.00057851
0.000683434
0.000867252
0.00118731
0.00179479
0.00223033
0.000972165
5.62549e-05
0.000204337
0.000326863
0.000416142
0.000478545
0.000513653
0.000528277
0.000526429
0.000519651
0.000508076
0.000505955
0.00051274
0.000535745
0.000587681
0.000683102
0.000856974
0.00115426
0.00174275
0.00210017
0.00096519
4.97196e-05
0.000193273
0.000326206
0.000424247
0.000494627
0.000539083
0.000561325
0.000564402
0.000561547
0.000555963
0.000558708
0.000571917
0.000603856
0.000667083
0.000767488
0.000946124
0.00119998
0.00172594
0.00192029
0.000945902
5.58294e-05
0.000218184
0.000377866
0.000494729
0.000581712
0.000642461
0.000681223
0.000704188
0.000720737
0.000740326
0.000770869
0.000818668
0.000892118
0.000997178
0.00114143
0.00135875
0.00157465
0.00187237
0.0017478
0.000919839
8.46258e-05
0.000310654
0.000562294
0.000749207
0.000893889
0.00101165
0.00110992
0.00120371
0.00129314
0.00139406
0.0015079
0.00164062
0.00180449
0.00198125
0.00219424
0.00241781
0.00238846
0.00217578
0.00168049
0.000865986
6.67252e-05
0.000108925
0.00020023
0.000290686
0.000372604
0.000438394
0.000499065
0.00054323
0.000592524
0.000623402
0.000670633
0.000696459
0.000748287
0.000776612
0.000834418
0.000863008
0.000900364
0.000913119
0.000894936
0.000795778
)
;

boundaryField
{
    movingWall
    {
        type            kqRWallFunction;
        value           nonuniform List<scalar> 
20
(
6.67252e-05
0.000108925
0.00020023
0.000290686
0.000372604
0.000438394
0.000499065
0.00054323
0.000592524
0.000623402
0.000670633
0.000696459
0.000748287
0.000776612
0.000834418
0.000863008
0.000900364
0.000913119
0.000894936
0.000795778
)
;
    }
    fixedWalls
    {
        type            kqRWallFunction;
        value           nonuniform List<scalar> 
60
(
2.61286e-06
1.11301e-05
3.8129e-05
8.47958e-05
0.000132845
0.000167182
0.000185933
0.000183671
0.000175253
0.0001558
0.000137079
0.000119324
0.000101774
8.45709e-05
7.00078e-05
5.62549e-05
4.97196e-05
5.58294e-05
8.46258e-05
6.67252e-05
0.000161402
0.000373257
0.000526872
0.000631412
0.00071386
0.000781893
0.000839212
0.000886706
0.000923932
0.000952426
0.000970138
0.000978558
0.000981142
0.000978574
0.000972165
0.00096519
0.000945902
0.000919839
0.000865986
0.000795778
2.61286e-06
5.87739e-06
9.89621e-06
3.57049e-05
0.000119146
0.000213075
0.000264696
0.000309285
0.00034662
0.000380958
0.000413004
0.000444449
0.000475746
0.000497798
0.000507632
0.000508946
0.000473658
0.000371111
0.000228513
0.000161402
)
;
    }
    frontAndBack
    {
        type            empty;
    }
}


// ************************************************************************* //
