/*--------------------------------*- C++ -*----------------------------------*\
| =========                 |                                                 |
| \\      /  F ield         | OpenFOAM: The Open Source CFD Toolbox           |
|  \\    /   O peration     | Version:  5.0                                   |
|   \\  /    A nd           | Web:      www.OpenFOAM.org                      |
|    \\/     M anipulation  |                                                 |
\*---------------------------------------------------------------------------*/
FoamFile
{
    version     2.0;
    format      ascii;
    class       volScalarField;
    location    "3.5";
    object      nut;
}
// * * * * * * * * * * * * * * * * * * * * * * * * * * * * * * * * * * * * * //

dimensions      [0 2 -1 0 0 0 0];

internalField   nonuniform List<scalar> 
400
(
7.32164e-08
1.6462e-07
2.79351e-07
1.01638e-06
3.37521e-06
6.00144e-06
7.44423e-06
8.69674e-06
9.74274e-06
1.07081e-05
1.16074e-05
1.24914e-05
1.33704e-05
1.39898e-05
1.42659e-05
1.43027e-05
1.33103e-05
1.04275e-05
6.42086e-06
4.53608e-06
3.11996e-07
2.73132e-06
2.71366e-06
5.00097e-06
1.16068e-05
1.83264e-05
2.38476e-05
3.07527e-05
3.652e-05
4.23019e-05
4.6428e-05
4.99086e-05
5.13785e-05
5.17852e-05
5.05707e-05
4.7454e-05
4.55089e-05
3.55371e-05
1.99265e-05
1.0489e-05
1.07124e-06
8.84691e-06
1.00387e-05
1.81806e-05
2.92529e-05
3.76528e-05
4.61191e-05
5.49167e-05
6.01065e-05
6.49191e-05
6.76789e-05
6.93294e-05
6.95354e-05
6.87808e-05
6.65184e-05
6.14427e-05
5.61515e-05
4.73296e-05
2.73424e-05
1.48062e-05
2.3871e-06
1.74846e-05
1.9841e-05
3.19135e-05
4.31367e-05
5.26931e-05
6.26256e-05
6.97064e-05
7.43982e-05
7.82628e-05
8.06252e-05
8.18906e-05
8.15098e-05
8.01742e-05
7.76594e-05
7.26443e-05
6.41595e-05
5.72139e-05
3.6003e-05
1.77435e-05
3.74405e-06
2.41805e-05
2.92716e-05
4.27795e-05
5.34426e-05
6.35276e-05
7.21609e-05
7.84325e-05
8.34454e-05
8.76439e-05
8.99724e-05
9.08099e-05
9.0445e-05
8.89112e-05
8.62188e-05
8.19624e-05
7.21213e-05
6.39457e-05
4.36672e-05
2.00595e-05
4.71345e-06
2.95322e-05
3.78133e-05
4.95044e-05
6.02446e-05
7.01034e-05
7.90969e-05
8.59951e-05
9.12935e-05
9.43974e-05
9.61545e-05
9.68709e-05
9.63993e-05
9.47232e-05
9.22455e-05
8.90021e-05
8.08648e-05
6.98096e-05
5.07228e-05
2.19713e-05
5.24467e-06
3.36326e-05
4.20581e-05
5.29529e-05
6.48802e-05
7.54193e-05
8.42643e-05
9.04015e-05
9.48273e-05
9.75749e-05
9.97466e-05
0.00010088
0.000100466
9.86308e-05
9.60045e-05
9.32054e-05
8.79684e-05
7.51399e-05
5.68989e-05
2.35812e-05
5.18152e-06
3.42124e-05
4.43747e-05
5.57857e-05
6.79185e-05
7.81853e-05
8.59098e-05
9.15738e-05
9.59941e-05
9.91538e-05
0.000100939
0.000102776
0.00010299
0.000101452
9.86458e-05
9.57239e-05
9.23344e-05
7.95969e-05
6.25428e-05
2.49155e-05
4.94506e-06
3.49538e-05
4.62991e-05
5.68627e-05
6.82162e-05
7.82007e-05
8.54822e-05
9.09892e-05
9.50094e-05
9.78296e-05
0.000100088
0.000101931
0.000103457
0.000103281
0.000101063
9.80807e-05
9.53462e-05
8.38566e-05
6.70578e-05
2.59611e-05
4.39755e-06
3.45304e-05
4.63739e-05
5.63015e-05
6.68704e-05
7.63051e-05
8.34674e-05
8.8588e-05
9.21338e-05
9.43991e-05
9.62465e-05
9.85117e-05
0.000101205
0.000103444
0.000102945
9.98471e-05
9.65853e-05
8.77419e-05
7.08287e-05
2.67612e-05
3.86984e-06
3.25009e-05
4.5465e-05
5.48744e-05
6.42153e-05
7.30694e-05
7.98777e-05
8.45281e-05
8.78684e-05
8.95062e-05
9.09452e-05
9.34315e-05
9.65657e-05
0.000101456
0.000104051
0.000101521
9.68671e-05
8.993e-05
7.36943e-05
2.72586e-05
3.36897e-06
2.93739e-05
4.38942e-05
5.30159e-05
6.11153e-05
6.89346e-05
7.51868e-05
7.93751e-05
8.25332e-05
8.38993e-05
8.53702e-05
8.82726e-05
9.18691e-05
9.86468e-05
0.000104081
0.000102535
9.7279e-05
9.07876e-05
7.60701e-05
2.74949e-05
2.87339e-06
2.57071e-05
4.17612e-05
5.08931e-05
5.85389e-05
6.47862e-05
7.01936e-05
7.39601e-05
7.68324e-05
7.82936e-05
8.06442e-05
8.36814e-05
8.81559e-05
9.60367e-05
0.000103235
0.000102145
9.62891e-05
9.08703e-05
7.72625e-05
2.75674e-05
2.38611e-06
2.19549e-05
3.94603e-05
4.93441e-05
5.65125e-05
6.19747e-05
6.5953e-05
6.93894e-05
7.22608e-05
7.41349e-05
7.77317e-05
8.0843e-05
8.59154e-05
9.36088e-05
9.99697e-05
9.90148e-05
9.31168e-05
8.93968e-05
7.76232e-05
2.74951e-05
1.97312e-06
1.90041e-05
3.69155e-05
4.76509e-05
5.51647e-05
6.18355e-05
6.59855e-05
6.87788e-05
7.15918e-05
7.33764e-05
7.7182e-05
7.98574e-05
8.43458e-05
9.08854e-05
9.60228e-05
9.38485e-05
8.62687e-05
8.62496e-05
7.72879e-05
2.73153e-05
1.58297e-06
1.62294e-05
3.49919e-05
4.88836e-05
5.79861e-05
6.37251e-05
6.79346e-05
6.98489e-05
7.25346e-05
7.40371e-05
7.70452e-05
7.85653e-05
8.11853e-05
8.44446e-05
8.64185e-05
8.58085e-05
8.16355e-05
8.21684e-05
7.24934e-05
2.71178e-05
1.39546e-06
1.75803e-05
3.74244e-05
5.07405e-05
6.03019e-05
6.67628e-05
7.12223e-05
7.26571e-05
7.37413e-05
7.36812e-05
7.3588e-05
7.30937e-05
7.24758e-05
7.22029e-05
7.30623e-05
7.44315e-05
7.27716e-05
7.61605e-05
6.72058e-05
2.6575e-05
1.566e-06
2.11502e-05
4.13632e-05
5.41439e-05
6.24043e-05
6.73791e-05
6.99015e-05
7.00109e-05
6.88483e-05
6.70043e-05
6.5248e-05
6.39325e-05
6.36932e-05
6.41003e-05
6.7338e-05
6.98273e-05
7.2134e-05
7.05711e-05
5.90119e-05
2.58398e-05
2.37459e-06
2.79838e-05
4.44683e-05
5.3205e-05
5.90491e-05
6.28636e-05
6.52803e-05
6.67723e-05
6.77032e-05
6.85332e-05
6.95561e-05
7.08087e-05
7.29808e-05
7.46821e-05
7.84306e-05
7.98817e-05
7.81542e-05
7.05829e-05
5.29294e-05
2.43234e-05
1.87191e-06
3.05683e-06
5.62162e-06
8.16419e-06
1.04659e-05
1.23129e-05
1.40153e-05
1.52529e-05
1.66344e-05
1.74985e-05
1.88224e-05
1.95464e-05
2.10001e-05
2.17962e-05
2.34203e-05
2.42265e-05
2.5277e-05
2.56395e-05
2.51299e-05
2.23467e-05
)
;

boundaryField
{
    movingWall
    {
        type            nutkWallFunction;
        Cmu             0.09;
        kappa           0.41;
        E               9.8;
        value           uniform 0;
    }
    fixedWalls
    {
        type            nutkWallFunction;
        Cmu             0.09;
        kappa           0.41;
        E               9.8;
        value           uniform 0;
    }
    frontAndBack
    {
        type            empty;
    }
}


// ************************************************************************* //
