/*--------------------------------*- C++ -*----------------------------------*\
| =========                 |                                                 |
| \\      /  F ield         | OpenFOAM: The Open Source CFD Toolbox           |
|  \\    /   O peration     | Version:  5.0                                   |
|   \\  /    A nd           | Web:      www.OpenFOAM.org                      |
|    \\/     M anipulation  |                                                 |
\*---------------------------------------------------------------------------*/
FoamFile
{
    version     2.0;
    format      ascii;
    class       volScalarField;
    location    "3.5";
    object      p;
}
// * * * * * * * * * * * * * * * * * * * * * * * * * * * * * * * * * * * * * //

dimensions      [0 2 -2 0 0 0 0];

internalField   nonuniform List<scalar> 
400
(
3.01604e-08
-3.6469e-05
-6.05718e-05
-9.8162e-05
-8.5368e-05
-0.000389435
-0.00109218
-0.0019663
-0.00277433
-0.00335668
-0.00360793
-0.00346249
-0.00291004
-0.00194973
-0.000595021
0.00106291
0.00281542
0.00429798
0.00516272
0.00529205
1.56358e-05
-2.25095e-05
-3.84486e-05
-0.000124961
-0.000363667
-0.000855355
-0.00162477
-0.00247168
-0.00323337
-0.00379738
-0.0040617
-0.00397907
-0.00352285
-0.00266381
-0.00141551
0.000163208
0.0018999
0.00348945
0.00456645
0.00495332
9.68812e-05
2.58406e-05
-0.000112557
-0.000384441
-0.000873601
-0.00159156
-0.00244532
-0.00329241
-0.00403362
-0.00458316
-0.0048372
-0.00476525
-0.00436061
-0.00361865
-0.00254045
-0.00115756
0.000440019
0.00205106
0.00335532
0.00397123
0.00010676
-3.45063e-05
-0.000320008
-0.000837317
-0.00158915
-0.00249197
-0.00342651
-0.00429168
-0.00500491
-0.0054908
-0.00571038
-0.00565149
-0.00530003
-0.00466704
-0.00375651
-0.00258261
-0.00118712
0.000315743
0.00168383
0.00237433
-7.94502e-05
-0.000297271
-0.000741018
-0.00145999
-0.00239779
-0.00340999
-0.00438185
-0.00523418
-0.00590075
-0.00633759
-0.00652727
-0.00646947
-0.00616666
-0.0056346
-0.00488153
-0.00391398
-0.0027466
-0.0014303
-0.000124163
0.000535107
-0.000496967
-0.000778283
-0.00133483
-0.00217729
-0.0031976
-0.00424941
-0.00521893
-0.00603959
-0.00666006
-0.00705452
-0.00721638
-0.00715467
-0.00688671
-0.00643501
-0.00581377
-0.00502705
-0.00407524
-0.00297918
-0.00187207
-0.00123978
-0.00108139
-0.00139888
-0.00200224
-0.00288056
-0.00390934
-0.00495271
-0.00589451
-0.0066753
-0.00725265
-0.00760901
-0.00774495
-0.00767666
-0.00743066
-0.00703694
-0.00651679
-0.00587574
-0.00510804
-0.00421956
-0.00334027
-0.00276927
-0.00171028
-0.00202448
-0.0026262
-0.00347963
-0.00447431
-0.005482
-0.0063834
-0.00712248
-0.00766099
-0.00798473
-0.00809811
-0.00802185
-0.00778834
-0.00743384
-0.00698637
-0.00645543
-0.00583463
-0.00512447
-0.00445503
-0.00394497
-0.00226231
-0.00255148
-0.00311547
-0.00391389
-0.00485527
-0.00581199
-0.00666801
-0.00736811
-0.00787431
-0.00817267
-0.00826846
-0.00818445
-0.00795715
-0.00762792
-0.00723102
-0.00678023
-0.00627191
-0.00569877
-0.00519368
-0.00474358
-0.00268005
-0.00291953
-0.00342855
-0.0041548
-0.00503278
-0.00592862
-0.00673905
-0.00740561
-0.00788724
-0.00816842
-0.00825303
-0.00816376
-0.00794011
-0.00762664
-0.00726519
-0.00687103
-0.00644775
-0.0059624
-0.00558681
-0.00516676
-0.00293004
-0.00312973
-0.00356478
-0.00420684
-0.00499904
-0.00583072
-0.00659752
-0.00723563
-0.00770089
-0.00797312
-0.0080541
-0.0079659
-0.00774887
-0.00745151
-0.00711376
-0.00675687
-0.00639861
-0.00594463
-0.00568374
-0.00523843
-0.00301541
-0.00317834
-0.00353928
-0.00408941
-0.00478276
-0.00554289
-0.00626396
-0.0068767
-0.00733188
-0.00760384
-0.00769084
-0.00761279
-0.00740871
-0.00712809
-0.00681019
-0.00647809
-0.00615454
-0.0056848
-0.00556395
-0.00497967
-0.00299235
-0.00311058
-0.00338841
-0.003838
-0.00443032
-0.0051076
-0.00577735
-0.00636509
-0.0068152
-0.00709549
-0.0071992
-0.00714285
-0.00696056
-0.00670027
-0.00639939
-0.0060787
-0.00576073
-0.00524369
-0.00529047
-0.00441814
-0.00291932
-0.00298054
-0.00316298
-0.00350305
-0.00399167
-0.00458279
-0.00519812
-0.00576142
-0.00621099
-0.00650772
-0.006638
-0.00661267
-0.00646148
-0.00622368
-0.00593431
-0.00561148
-0.00528064
-0.00470323
-0.004878
-0.00359071
-0.00283626
-0.00282954
-0.00290484
-0.00313506
-0.00352438
-0.00403543
-0.00459979
-0.00514226
-0.00559635
-0.00591656
-0.00608164
-0.00609371
-0.00597644
-0.00575907
-0.00547227
-0.00512837
-0.0047618
-0.00410346
-0.00430621
-0.00252432
-0.00276264
-0.00266551
-0.00263488
-0.00276652
-0.00307326
-0.0035214
-0.00404685
-0.00457577
-0.00504003
-0.0053883
-0.00559248
-0.00564607
-0.00556191
-0.00536025
-0.00506377
-0.00467239
-0.00422392
-0.00341159
-0.0034851
-0.0010767
-0.00272695
-0.00250597
-0.00236891
-0.00241991
-0.00266568
-0.00307086
-0.00357235
-0.00409721
-0.00457733
-0.00495671
-0.00520086
-0.00529522
-0.00524216
-0.00504882
-0.00472423
-0.00423815
-0.00362039
-0.00250872
-0.00213939
0.00162806
-0.00273726
-0.00232844
-0.00211957
-0.0021037
-0.00231168
-0.00270091
-0.00320019
-0.00373438
-0.00423423
-0.00464292
-0.00492234
-0.00504834
-0.00501188
-0.0047991
-0.00440437
-0.00377007
-0.00286844
-0.00117132
0.000445
0.00755907
-0.0029589
-0.00226588
-0.00195003
-0.00186916
-0.00205145
-0.00243598
-0.00294595
-0.00350335
-0.00403731
-0.00448267
-0.00480394
-0.00496251
-0.00495444
-0.00473955
-0.00430057
-0.00347619
-0.00208909
0.000766433
0.00523522
0.0177517
-0.00342005
-0.000912536
-0.000546405
-0.000663858
-0.000950451
-0.00140288
-0.00199355
-0.00264595
-0.00327016
-0.00379648
-0.00417074
-0.0043683
-0.00435253
-0.0040998
-0.00352403
-0.00251864
-0.000514733
0.00416851
0.0132574
0.029488
)
;

boundaryField
{
    movingWall
    {
        type            zeroGradient;
    }
    fixedWalls
    {
        type            zeroGradient;
    }
    frontAndBack
    {
        type            empty;
    }
}


// ************************************************************************* //
