/*--------------------------------*- C++ -*----------------------------------*\
| =========                 |                                                 |
| \\      /  F ield         | OpenFOAM: The Open Source CFD Toolbox           |
|  \\    /   O peration     | Version:  5.0                                   |
|   \\  /    A nd           | Web:      www.OpenFOAM.org                      |
|    \\/     M anipulation  |                                                 |
\*---------------------------------------------------------------------------*/
FoamFile
{
    version     2.0;
    format      ascii;
    class       surfaceScalarField;
    location    "3.5";
    object      phi;
}
// * * * * * * * * * * * * * * * * * * * * * * * * * * * * * * * * * * * * * //

dimensions      [0 3 -1 0 0 0 0];

internalField   nonuniform List<scalar> 
760
(
9.61321e-08
-9.61351e-08
6.90373e-08
2.70947e-08
-1.21445e-07
1.90482e-07
-6.41825e-07
5.2038e-07
-1.59976e-06
9.57938e-07
-2.75089e-06
1.15112e-06
-3.74465e-06
9.93765e-07
-4.56092e-06
8.16272e-07
-5.18984e-06
6.28916e-07
-5.6106e-06
4.20762e-07
-5.86429e-06
2.53687e-07
-5.93603e-06
7.17364e-08
-5.8226e-06
-1.13427e-07
-5.52538e-06
-2.97223e-07
-5.00697e-06
-5.18403e-07
-4.24629e-06
-7.60678e-07
-3.21755e-06
-1.02874e-06
-1.97263e-06
-1.24492e-06
-7.14226e-07
-1.2584e-06
-7.14226e-07
-6.99816e-08
-2.61535e-08
-4.01575e-07
3.58688e-07
-1.11619e-06
9.05092e-07
-2.18911e-06
1.5933e-06
-3.23402e-06
2.00285e-06
-4.01993e-06
1.93703e-06
-4.713e-06
1.68684e-06
-5.27757e-06
1.38084e-06
-5.70116e-06
1.05251e-06
-6.00629e-06
7.25892e-07
-6.16343e-06
4.10821e-07
-6.17003e-06
7.83409e-08
-6.04091e-06
-2.42552e-07
-5.75324e-06
-5.84891e-07
-5.30157e-06
-9.70069e-07
-4.65043e-06
-1.41183e-06
-3.77205e-06
-1.90712e-06
-2.62679e-06
-2.39018e-06
-1.26494e-06
-2.62025e-06
-1.97916e-06
-3.88633e-07
3.62479e-07
-1.08544e-06
1.0555e-06
-2.01906e-06
1.83871e-06
-2.92838e-06
2.50262e-06
-3.63924e-06
2.71371e-06
-4.21348e-06
2.51127e-06
-4.69618e-06
2.16954e-06
-5.07495e-06
1.7596e-06
-5.33782e-06
1.31538e-06
-5.49693e-06
8.85008e-07
-5.54487e-06
4.58761e-07
-5.49575e-06
2.92153e-08
-5.35354e-06
-3.84759e-07
-5.10549e-06
-8.32947e-07
-4.73787e-06
-1.33768e-06
-4.22788e-06
-1.92181e-06
-3.54269e-06
-2.59232e-06
-2.62864e-06
-3.30423e-06
-1.43081e-06
-3.81808e-06
-3.40997e-06
-6.2224e-07
9.8472e-07
-1.42499e-06
1.85824e-06
-2.26498e-06
2.6787e-06
-2.95524e-06
3.19288e-06
-3.46147e-06
3.21993e-06
-3.87014e-06
2.91995e-06
-4.1916e-06
2.491e-06
-4.42425e-06
1.99225e-06
-4.57767e-06
1.46881e-06
-4.64804e-06
9.55381e-07
-4.64301e-06
4.5373e-07
-4.57217e-06
-4.16279e-08
-4.42872e-06
-5.28211e-07
-4.2159e-06
-1.04576e-06
-3.92781e-06
-1.62577e-06
-3.54375e-06
-2.30588e-06
-3.02631e-06
-3.10975e-06
-2.31731e-06
-4.01323e-06
-1.32162e-06
-4.81377e-06
-4.7316e-06
-6.8914e-07
1.67386e-06
-1.44023e-06
2.60934e-06
-2.11565e-06
3.35412e-06
-2.6204e-06
3.69763e-06
-2.99826e-06
3.5978e-06
-3.29079e-06
3.21248e-06
-3.50763e-06
2.70784e-06
-3.65464e-06
2.13926e-06
-3.73756e-06
1.55173e-06
-3.75587e-06
9.73685e-07
-3.71535e-06
4.13211e-07
-3.62579e-06
-1.31185e-07
-3.48691e-06
-6.67086e-07
-3.30804e-06
-1.22464e-06
-3.08931e-06
-1.8445e-06
-2.81531e-06
-2.57988e-06
-2.4458e-06
-3.47926e-06
-1.9148e-06
-4.54423e-06
-1.12715e-06
-5.60142e-06
-5.85875e-06
-6.20683e-07
2.29454e-06
-1.24845e-06
3.23711e-06
-1.75723e-06
3.86291e-06
-2.12764e-06
4.06803e-06
-2.40813e-06
3.87829e-06
-2.61995e-06
3.4243e-06
-2.76986e-06
2.85775e-06
-2.86414e-06
2.23354e-06
-2.90637e-06
1.59396e-06
-2.89777e-06
9.65081e-07
-2.84251e-06
3.57955e-07
-2.74823e-06
-2.25462e-07
-2.62231e-06
-7.93006e-07
-2.47625e-06
-1.3707e-06
-2.31643e-06
-2.00432e-06
-2.13581e-06
-2.7605e-06
-1.90359e-06
-3.71148e-06
-1.54807e-06
-4.89975e-06
-9.27622e-07
-6.22187e-06
-6.78637e-06
-4.86644e-07
2.78119e-06
-9.56978e-07
3.70744e-06
-1.3125e-06
4.21843e-06
-1.57346e-06
4.32899e-06
-1.77249e-06
4.07732e-06
-1.92305e-06
3.57485e-06
-2.02764e-06
2.96234e-06
-2.09057e-06
2.29647e-06
-2.11338e-06
1.61677e-06
-2.09654e-06
9.48239e-07
-2.043e-06
3.04414e-07
-1.95941e-06
-3.09047e-07
-1.85576e-06
-8.96659e-07
-1.74558e-06
-1.48088e-06
-1.63949e-06
-2.11041e-06
-1.53553e-06
-2.86446e-06
-1.40833e-06
-3.83868e-06
-1.19166e-06
-5.11643e-06
-7.73872e-07
-6.63965e-06
-7.56024e-06
-3.18775e-07
3.09996e-06
-6.3019e-07
4.01886e-06
-8.45902e-07
4.43414e-06
-1.00456e-06
4.48765e-06
-1.13099e-06
4.20375e-06
-1.23006e-06
3.67392e-06
-1.3004e-06
3.03268e-06
-1.34354e-06
2.33961e-06
-1.35909e-06
1.63232e-06
-1.34632e-06
9.3547e-07
-1.30684e-06
2.6494e-07
-1.24628e-06
-3.69606e-07
-1.17507e-06
-9.67872e-07
-1.10785e-06
-1.5481e-06
-1.05794e-06
-2.16032e-06
-1.0271e-06
-2.8953e-06
-9.92614e-07
-3.87317e-06
-8.90266e-07
-5.21877e-06
-6.18241e-07
-6.91168e-06
-8.17848e-06
-1.54938e-07
3.2549e-06
-3.00636e-07
4.16455e-06
-3.92247e-07
4.52576e-06
-4.54443e-07
4.54984e-06
-5.08035e-07
4.25734e-06
-5.55981e-07
3.72186e-06
-5.94384e-07
3.07108e-06
-6.21429e-07
2.36665e-06
-6.34779e-07
1.64567e-06
-6.32647e-07
9.33338e-07
-6.15483e-07
2.47776e-07
-5.87555e-07
-3.97534e-07
-5.5841e-07
-9.97018e-07
-5.42193e-07
-1.56432e-06
-5.52682e-07
-2.14983e-06
-5.94017e-07
-2.85396e-06
-6.45392e-07
-3.82179e-06
-6.4405e-07
-5.22012e-06
-5.06962e-07
-7.04877e-06
-8.68545e-06
1.74011e-08
3.2375e-06
5.37745e-09
4.17658e-06
2.37057e-08
4.50743e-06
5.9811e-08
4.51374e-06
8.23797e-08
4.23477e-06
8.93209e-08
3.71492e-06
8.59799e-08
3.07443e-06
7.73788e-08
2.37526e-06
6.67382e-08
1.65631e-06
5.66961e-08
9.4338e-07
4.73997e-08
2.57072e-07
3.54967e-08
-3.85631e-07
1.34357e-08
-9.74957e-07
-3.06323e-08
-1.52025e-06
-1.07556e-07
-2.07291e-06
-2.21162e-07
-2.74036e-06
-3.55509e-07
-3.68744e-06
-4.4415e-07
-5.13147e-06
-4.09544e-07
-7.08337e-06
-9.09499e-06
1.46463e-07
3.09104e-06
2.6943e-07
4.05361e-06
4.0445e-07
4.37241e-06
5.35724e-07
4.38247e-06
6.35561e-07
4.13494e-06
7.00625e-07
3.64986e-06
7.36685e-07
3.03837e-06
7.49722e-07
2.36222e-06
7.43957e-07
1.66208e-06
7.21467e-07
9.65869e-07
6.81969e-07
2.9657e-07
6.2362e-07
-3.27282e-07
5.4274e-07
-8.94076e-07
4.32976e-07
-1.41049e-06
2.87223e-07
-1.92716e-06
1.01284e-07
-2.55442e-06
-1.06828e-07
-3.47933e-06
-2.80527e-07
-4.95778e-06
-3.41414e-07
-7.02249e-06
-9.4364e-06
2.57111e-07
2.83392e-06
4.78842e-07
3.83188e-06
7.08652e-07
4.1426e-06
9.28274e-07
4.16284e-06
1.11538e-06
3.94783e-06
1.24895e-06
3.51629e-06
1.33426e-06
2.95306e-06
1.37736e-06
2.31912e-06
1.38244e-06
1.65699e-06
1.3513e-06
9.97008e-07
1.28334e-06
3.6453e-07
1.1772e-06
-2.21135e-07
1.03454e-06
-7.51423e-07
8.55844e-07
-1.23179e-06
6.40708e-07
-1.71202e-06
3.87085e-07
-2.30079e-06
1.06943e-07
-3.19919e-06
-1.46843e-07
-4.70399e-06
-2.85706e-07
-6.88362e-06
-9.72211e-06
3.33131e-07
2.50079e-06
6.26107e-07
3.5389e-06
9.27787e-07
3.84092e-06
1.22627e-06
3.86436e-06
1.49447e-06
3.67963e-06
1.70289e-06
3.30787e-06
1.84696e-06
2.80899e-06
1.92898e-06
2.2371e-06
1.95186e-06
1.63411e-06
1.91716e-06
1.03171e-06
1.82563e-06
4.56055e-07
1.67593e-06
-7.14334e-08
1.47713e-06
-5.52619e-07
1.23596e-06
-9.90616e-07
9.58259e-07
-1.43433e-06
6.42264e-07
-1.9848e-06
2.92436e-07
-2.84936e-06
-4.00832e-08
-4.37147e-06
-2.3239e-07
-6.69132e-06
-9.9545e-06
3.62049e-07
2.13874e-06
7.00152e-07
3.2008e-06
1.05263e-06
3.48844e-06
1.41188e-06
3.50511e-06
1.74824e-06
3.34326e-06
2.02773e-06
3.02839e-06
2.23425e-06
2.60247e-06
2.36199e-06
2.10936e-06
2.4104e-06
1.5857e-06
2.3803e-06
1.06181e-06
2.27411e-06
5.62245e-07
2.09865e-06
1.04024e-07
1.85903e-06
-3.13e-07
1.57205e-06
-7.03632e-07
1.24624e-06
-1.10851e-06
8.81426e-07
-1.61999e-06
4.78637e-07
-2.44657e-06
9.30822e-08
-3.98592e-06
-1.42987e-07
-6.45525e-06
-1.00975e-05
3.32559e-07
1.80619e-06
6.92757e-07
2.8406e-06
1.07899e-06
3.10221e-06
1.48245e-06
3.10165e-06
1.87182e-06
2.9539e-06
2.20935e-06
2.69086e-06
2.47147e-06
2.34035e-06
2.64589e-06
1.93493e-06
2.72724e-06
1.50435e-06
2.71521e-06
1.07384e-06
2.61396e-06
6.63491e-07
2.43222e-06
2.85769e-07
2.17899e-06
-5.97683e-08
1.87117e-06
-3.9581e-07
1.51791e-06
-7.5526e-07
1.12165e-06
-1.22373e-06
6.84228e-07
-2.00915e-06
2.67598e-07
-3.56929e-06
1.01775e-08
-6.19783e-06
-1.00873e-05
2.41115e-07
1.56507e-06
5.98525e-07
2.48319e-06
1.01972e-06
2.68101e-06
1.45801e-06
2.66336e-06
1.88417e-06
2.52773e-06
2.26462e-06
2.31041e-06
2.57222e-06
2.03275e-06
2.79072e-06
1.71643e-06
2.91087e-06
1.38421e-06
2.93232e-06
1.05239e-06
2.85923e-06
7.36585e-07
2.70027e-06
4.44731e-07
2.46607e-06
1.74426e-07
2.16721e-06
-9.6953e-08
1.8102e-06
-3.98247e-07
1.40635e-06
-8.19874e-07
9.56718e-07
-1.55952e-06
5.01392e-07
-3.11396e-06
1.56661e-07
-5.8531e-06
-9.93065e-06
1.02087e-07
1.46298e-06
4.59876e-07
2.1254e-06
8.92188e-07
2.2487e-06
1.35742e-06
2.19813e-06
1.81451e-06
2.07064e-06
2.23023e-06
1.89468e-06
2.57885e-06
1.68413e-06
2.84422e-06
1.45106e-06
3.01773e-06
1.21069e-06
3.09592e-06
9.74193e-07
3.07991e-06
7.52597e-07
2.97854e-06
5.46101e-07
2.80088e-06
3.52086e-07
2.55181e-06
1.52118e-07
2.23111e-06
-7.75422e-08
1.85616e-06
-4.44929e-07
1.40442e-06
-1.10778e-06
8.87701e-07
-2.59724e-06
3.83247e-07
-5.34864e-06
-9.5474e-06
-2.34473e-07
1.69746e-06
1.23816e-07
1.76711e-06
6.46693e-07
1.72582e-06
1.19914e-06
1.64569e-06
1.73368e-06
1.5361e-06
2.22522e-06
1.40315e-06
2.65267e-06
1.25668e-06
3.00069e-06
1.10305e-06
3.25931e-06
9.52068e-07
3.42792e-06
8.05584e-07
3.50973e-06
6.70793e-07
3.51289e-06
5.42936e-07
3.44121e-06
4.2377e-07
3.30093e-06
2.92391e-07
3.09471e-06
1.28681e-07
2.8041e-06
-1.54315e-07
2.35583e-06
-6.59516e-07
1.74277e-06
-1.98418e-06
8.72338e-07
-4.47821e-06
-8.67506e-06
-3.97555e-07
2.09501e-06
1.61878e-07
1.20768e-06
8.6261e-07
1.02509e-06
1.55529e-06
9.53009e-07
2.2071e-06
8.84281e-07
2.80511e-06
8.05149e-07
3.33714e-06
7.24645e-07
3.79674e-06
6.43447e-07
4.17629e-06
5.72517e-07
4.48631e-06
4.95568e-07
4.71906e-06
4.38042e-07
4.89811e-06
3.63888e-07
5.00435e-06
3.17531e-07
5.06447e-06
2.32271e-07
5.02026e-06
1.72888e-07
4.86804e-06
-2.09205e-09
4.53477e-06
-3.26253e-07
3.84123e-06
-1.29063e-06
2.27401e-06
-2.91099e-06
-6.40106e-06
2.09501e-06
3.30269e-06
4.32778e-06
5.28079e-06
6.16507e-06
6.97022e-06
7.69487e-06
8.33832e-06
8.91083e-06
9.4064e-06
9.84444e-06
1.02083e-05
1.05259e-05
1.07581e-05
1.0931e-05
1.09289e-05
1.06027e-05
9.31204e-06
6.40106e-06
)
;

boundaryField
{
    movingWall
    {
        type            calculated;
        value           uniform 0;
    }
    fixedWalls
    {
        type            calculated;
        value           uniform 0;
    }
    frontAndBack
    {
        type            empty;
        value           nonuniform 0();
    }
}


// ************************************************************************* //
