/*--------------------------------*- C++ -*----------------------------------*\
| =========                 |                                                 |
| \\      /  F ield         | OpenFOAM: The Open Source CFD Toolbox           |
|  \\    /   O peration     | Version:  5.0                                   |
|   \\  /    A nd           | Web:      www.OpenFOAM.org                      |
|    \\/     M anipulation  |                                                 |
\*---------------------------------------------------------------------------*/
FoamFile
{
    version     2.0;
    format      ascii;
    class       volVectorField;
    location    "3.5";
    object      U;
}
// * * * * * * * * * * * * * * * * * * * * * * * * * * * * * * * * * * * * * //

dimensions      [0 1 -1 0 0 0 0];

internalField   nonuniform List<vector> 
400
(
(0.00129044 -0.00131152 0)
(0.00227132 -0.000662683 0)
(0.000673574 -3.00034e-05 0)
(-0.00590398 0.00112032 0)
(-0.0178211 0.00586085 0)
(-0.0445592 0.0125684 0)
(-0.0679702 0.0102845 0)
(-0.0850562 0.00831832 0)
(-0.0999948 0.00644558 0)
(-0.109518 0.00423132 0)
(-0.116036 0.00257314 0)
(-0.118776 0.000605344 0)
(-0.118679 -0.0018833 0)
(-0.11392 -0.00409225 0)
(-0.105633 -0.00682086 0)
(-0.0919771 -0.00906838 0)
(-0.0739452 -0.0115451 0)
(-0.0511806 -0.0127332 0)
(-0.026194 -0.0108228 0)
(-0.00510171 -0.00292187 0)
(0.000200201 -0.00281552 0)
(-0.00327398 0.00164882 0)
(-0.0120796 0.00823766 0)
(-0.0315118 0.0209939 0)
(-0.0547898 0.0320877 0)
(-0.073411 0.0317144 0)
(-0.0894403 0.027609 0)
(-0.101305 0.0228701 0)
(-0.111003 0.0177697 0)
(-0.118116 0.0118984 0)
(-0.12264 0.00692237 0)
(-0.124197 0.00171272 0)
(-0.122903 -0.00352554 0)
(-0.118567 -0.00928415 0)
(-0.110998 -0.0158917 0)
(-0.0995229 -0.0236059 0)
(-0.0839056 -0.0318387 0)
(-0.0639036 -0.038673 0)
(-0.0392897 -0.0392685 0)
(-0.0135774 -0.0237876 0)
(-0.00301105 0.00203037 0)
(-0.0127229 0.0135984 0)
(-0.0298473 0.0286651 0)
(-0.049756 0.0423094 0)
(-0.0669333 0.0479126 0)
(-0.0795178 0.044698 0)
(-0.090408 0.0386282 0)
(-0.0984738 0.0312409 0)
(-0.105192 0.0232632 0)
(-0.1091 0.0159717 0)
(-0.111038 0.00852565 0)
(-0.110832 0.000974197 0)
(-0.109028 -0.00673196 0)
(-0.105087 -0.0149239 0)
(-0.0988791 -0.0241334 0)
(-0.089911 -0.0347315 0)
(-0.0776466 -0.0468384 0)
(-0.0616471 -0.0594455 0)
(-0.0405768 -0.067269 0)
(-0.0174902 -0.0558711 0)
(-0.00584548 0.0133165 0)
(-0.0192178 0.0296403 0)
(-0.0366894 0.0459673 0)
(-0.0535778 0.0577725 0)
(-0.0654255 0.0595246 0)
(-0.074152 0.0544909 0)
(-0.0815238 0.0467809 0)
(-0.0868106 0.0376453 0)
(-0.0907154 0.028006 0)
(-0.0926976 0.0184549 0)
(-0.0933239 0.00910305 0)
(-0.0924778 -8.93091e-05 0)
(-0.0903504 -0.00940271 0)
(-0.086761 -0.0193125 0)
(-0.081767 -0.0304399 0)
(-0.0750377 -0.0434041 0)
(-0.0658853 -0.0584781 0)
(-0.0534584 -0.07491 0)
(-0.0358707 -0.0884483 0)
(-0.0167572 -0.084296 0)
(-0.00698861 0.0266093 0)
(-0.0206932 0.044896 0)
(-0.0361751 0.060687 0)
(-0.0487171 0.0691411 0)
(-0.0573338 0.0683077 0)
(-0.0635765 0.0615056 0)
(-0.0686657 0.0521832 0)
(-0.0721219 0.0414973 0)
(-0.0743732 0.0303514 0)
(-0.0752564 0.0193514 0)
(-0.074986 0.00866861 0)
(-0.0736202 -0.00174688 0)
(-0.0713085 -0.0121203 0)
(-0.0681125 -0.0230152 0)
(-0.0641594 -0.0352055 0)
(-0.059308 -0.0496255 0)
(-0.0529527 -0.0670364 0)
(-0.0438154 -0.0871851 0)
(-0.0295923 -0.105879 0)
(-0.0153046 -0.108255 0)
(-0.00643345 0.0393824 0)
(-0.0185935 0.0585056 0)
(-0.0310436 0.0723913 0)
(-0.0398897 0.077753 0)
(-0.0463583 0.0748943 0)
(-0.0508526 0.0665336 0)
(-0.0544241 0.0558172 0)
(-0.05672 0.0438531 0)
(-0.0580227 0.0315275 0)
(-0.0582808 0.0194027 0)
(-0.0575813 0.00768175 0)
(-0.0560223 -0.00363481 0)
(-0.053775 -0.0147317 0)
(-0.0510299 -0.0261581 0)
(-0.0479878 -0.038799 0)
(-0.0446578 -0.0538628 0)
(-0.0406354 -0.0725797 0)
(-0.0346749 -0.0954168 0)
(-0.0248185 -0.119872 0)
(-0.0112015 -0.128134 0)
(-0.00520665 0.0507475 0)
(-0.0145965 0.0695589 0)
(-0.0236602 0.0810367 0)
(-0.0295841 0.0841742 0)
(-0.0343097 0.0797398 0)
(-0.0374179 0.0701512 0)
(-0.0399101 0.0583185 0)
(-0.0414723 0.045367 0)
(-0.0422706 0.0321235 0)
(-0.0422687 0.0191031 0)
(-0.0415044 0.00655217 0)
(-0.0400692 -0.00545662 0)
(-0.0381406 -0.0170482 0)
(-0.0359675 -0.0287112 0)
(-0.0338174 -0.041403 0)
(-0.0317883 -0.0565894 0)
(-0.0295909 -0.0759504 0)
(-0.0259945 -0.10078 0)
(-0.0201165 -0.129607 0)
(-0.00940602 -0.14467 0)
(-0.00320053 0.0587765 0)
(-0.00982002 0.0776006 0)
(-0.015563 0.0869198 0)
(-0.018922 0.0884816 0)
(-0.0220425 0.0830562 0)
(-0.0239641 0.0726651 0)
(-0.0256047 0.0600614 0)
(-0.0266539 0.0464116 0)
(-0.0271853 0.0324842 0)
(-0.0271597 0.0187755 0)
(-0.0265807 0.00558445 0)
(-0.0255181 -0.00693556 0)
(-0.0241387 -0.0188303 0)
(-0.0227117 -0.0305077 0)
(-0.0215449 -0.0429625 0)
(-0.0208033 -0.057904 0)
(-0.0202712 -0.0774878 0)
(-0.0187445 -0.103835 0)
(-0.016167 -0.136157 0)
(-0.00698095 -0.158057 0)
(-0.00164241 0.0641706 0)
(-0.00472031 0.0824471 0)
(-0.00745339 0.0900941 0)
(-0.00874714 0.0908082 0)
(-0.0100759 0.0849449 0)
(-0.0108635 0.0742009 0)
(-0.0117029 0.0611923 0)
(-0.0122984 0.0471382 0)
(-0.0126525 0.0327825 0)
(-0.0127152 0.018623 0)
(-0.0124692 0.00500176 0)
(-0.0119605 -0.00784638 0)
(-0.0113303 -0.0198609 0)
(-0.0108343 -0.0313637 0)
(-0.0107745 -0.0433612 0)
(-0.0113495 -0.0577792 0)
(-0.0124463 -0.0772646 0)
(-0.0127337 -0.10477 0)
(-0.0130834 -0.140064 0)
(-0.00563402 -0.169051 0)
(0.000679142 0.0655028 0)
(0.000104943 0.084071 0)
(3.44036e-05 0.0909456 0)
(0.000747738 0.0912373 0)
(0.00129549 0.0853372 0)
(0.00165911 0.0746939 0)
(0.00167611 0.0616798 0)
(0.00158331 0.0475513 0)
(0.00142491 0.0330663 0)
(0.00126029 0.0187322 0)
(0.00110615 0.0049353 0)
(0.000931679 -0.00800989 0)
(0.000630657 -0.0199432 0)
(5.18338e-06 -0.0310948 0)
(-0.00117921 -0.0424831 0)
(-0.00310936 -0.056205 0)
(-0.005888 -0.0753866 0)
(-0.00766674 -0.103834 0)
(-0.0107743 -0.141526 0)
(-0.00402889 -0.178006 0)
(0.00191628 0.0640859 0)
(0.00417552 0.0830498 0)
(0.00649178 0.0894605 0)
(0.00932564 0.0895089 0)
(0.0115065 0.0843121 0)
(0.0132957 0.0741163 0)
(0.0143218 0.0614675 0)
(0.0148593 0.0476028 0)
(0.0149877 0.0333106 0)
(0.0147702 0.0191216 0)
(0.0142149 0.00546254 0)
(0.0132881 -0.00728766 0)
(0.0119175 -0.018905 0)
(0.00999484 -0.0295516 0)
(0.00743705 -0.0402441 0)
(0.00413785 -0.0531802 0)
(-0.000381643 -0.0719255 0)
(-0.00326627 -0.10116 0)
(-0.00904961 -0.141239 0)
(-0.00284997 -0.18546 0)
(0.00310862 0.0602903 0)
(0.00747007 0.0796482 0)
(0.0117186 0.0858388 0)
(0.0163163 0.0861162 0)
(0.0203031 0.0814559 0)
(0.023622 0.0722389 0)
(0.0258424 0.0603833 0)
(0.0271787 0.0471667 0)
(0.0277259 0.0334297 0)
(0.0275446 0.0197536 0)
(0.0266278 0.00660935 0)
(0.0249362 -0.00559456 0)
(0.0224396 -0.0166163 0)
(0.0191562 -0.0266208 0)
(0.0151992 -0.0365935 0)
(0.0105432 -0.0487471 0)
(0.00434061 -0.0669794 0)
(0.000806043 -0.0967778 0)
(-0.00802004 -0.139196 0)
(-0.00123669 -0.19159 0)
(0.00390917 0.054007 0)
(0.00979177 0.0742857 0)
(0.0154577 0.08037 0)
(0.0214764 0.0808641 0)
(0.0271489 0.0768917 0)
(0.031997 0.0688785 0)
(0.0355708 0.0582064 0)
(0.0378933 0.0460484 0)
(0.0390186 0.0332745 0)
(0.0389894 0.0205191 0)
(0.0377993 0.00829717 0)
(0.0354276 -0.00299826 0)
(0.0319046 -0.0131232 0)
(0.0273896 -0.0223458 0)
(0.0221598 -0.031604 0)
(0.0162867 -0.0429975 0)
(0.00857487 -0.0606303 0)
(0.00480621 -0.0908856 0)
(-0.00744256 -0.136027 0)
(0.000803683 -0.196754 0)
(0.00410779 0.0467309 0)
(0.010882 0.0677889 0)
(0.0175187 0.0736733 0)
(0.0245638 0.0741364 0)
(0.031568 0.0707554 0)
(0.0378099 0.0639392 0)
(0.0427409 0.0546843 0)
(0.0461662 0.0439685 0)
(0.048012 0.032603 0)
(0.048284 0.0212248 0)
(0.0469819 0.0103535 0)
(0.0441881 0.000345513 0)
(0.0399753 -0.00863932 0)
(0.034591 -0.0169575 0)
(0.0283911 -0.0254728 0)
(0.0215937 -0.0361193 0)
(0.0126327 -0.0530741 0)
(0.00892518 -0.0837242 0)
(-0.00710075 -0.131764 0)
(0.0040461 -0.201052 0)
(0.00332603 0.0393208 0)
(0.0106134 0.0603906 0)
(0.0177265 0.0660743 0)
(0.025507 0.0663262 0)
(0.0335083 0.0632923 0)
(0.0408838 0.0575677 0)
(0.0469579 0.0498279 0)
(0.0514227 0.0408351 0)
(0.0540734 0.031246 0)
(0.0548471 0.0216371 0)
(0.0537573 0.0124696 0)
(0.0509418 0.0040456 0)
(0.0465225 -0.00362168 0)
(0.0408144 -0.0109163 0)
(0.0341011 -0.0186088 0)
(0.0268068 -0.0284507 0)
(0.0168247 -0.0446815 0)
(0.0135944 -0.0759299 0)
(-0.0064333 -0.127105 0)
(0.0086357 -0.204745 0)
(0.00200852 0.0335355 0)
(0.00843048 0.0535374 0)
(0.0162281 0.0581739 0)
(0.0246904 0.0578986 0)
(0.0333715 0.0550181 0)
(0.0415553 0.0502175 0)
(0.0485315 0.0439474 0)
(0.0538913 0.0367381 0)
(0.0573717 0.0291089 0)
(0.0588543 0.0214949 0)
(0.0583754 0.0142272 0)
(0.0560616 0.00751834 0)
(0.0520682 0.00131337 0)
(0.0467068 -0.00480428 0)
(0.0399723 -0.0115206 0)
(0.0326625 -0.0205466 0)
(0.0220888 -0.0359901 0)
(0.0198641 -0.0675862 0)
(-0.00498316 -0.122729 0)
(0.0150178 -0.207148 0)
(-0.000865186 0.0294971 0)
(0.00568667 0.0455555 0)
(0.0133812 0.0492343 0)
(0.0223734 0.0487114 0)
(0.0316582 0.0461626 0)
(0.0404956 0.0423014 0)
(0.0482403 0.037497 0)
(0.0544666 0.0320692 0)
(0.0589155 0.0263874 0)
(0.0615413 0.0206943 0)
(0.0621857 0.0153201 0)
(0.061009 0.0103155 0)
(0.0581571 0.0056213 0)
(0.0539237 0.000809138 0)
(0.0479079 -0.00469611 0)
(0.0415468 -0.0126005 0)
(0.0307822 -0.0269241 0)
(0.0296546 -0.0583319 0)
(-0.00165536 -0.115852 0)
(0.0240606 -0.204694 0)
(-0.00491523 0.0307241 0)
(-0.00289268 0.0408519 0)
(0.00772323 0.0412914 0)
(0.0183948 0.0396392 0)
(0.0292656 0.0369741 0)
(0.0396262 0.0336796 0)
(0.0489135 0.0299993 0)
(0.056754 0.0261084 0)
(0.0628979 0.0222505 0)
(0.0672033 0.0185331 0)
(0.0697173 0.0150906 0)
(0.0705804 0.0118745 0)
(0.0698029 0.00890363 0)
(0.0677742 0.00574655 0)
(0.063837 0.00204065 0)
(0.0597285 -0.00431087 0)
(0.0496433 -0.0166818 0)
(0.0484815 -0.0465589 0)
(0.00934438 -0.103695 0)
(0.0396427 -0.186567 0)
(-0.00870749 0.0368802 0)
(-0.00460088 0.0240452 0)
(0.010531 0.0225146 0)
(0.0241852 0.0218652 0)
(0.0375972 0.0206663 0)
(0.0501779 0.0189821 0)
(0.0615128 0.0171059 0)
(0.0715 0.0151345 0)
(0.0799173 0.0131809 0)
(0.0868739 0.0112615 0)
(0.0922646 0.00945768 0)
(0.0964502 0.00773253 0)
(0.0991424 0.00604502 0)
(0.100894 0.00415294 0)
(0.10056 0.00174604 0)
(0.0991435 -0.00325209 0)
(0.0912902 -0.0119982 0)
(0.0893156 -0.0362731 0)
(0.0470454 -0.0807103 0)
(0.0723538 -0.143274 0)
(0.0448691 0.0431931 0)
(0.0507628 0.0311383 0)
(0.073505 0.0249999 0)
(0.0964839 0.021947 0)
(0.11485 0.0198406 0)
(0.131522 0.0179301 0)
(0.146301 0.0161497 0)
(0.160298 0.0144206 0)
(0.172252 0.0131448 0)
(0.183355 0.0116094 0)
(0.192456 0.0108685 0)
(0.200643 0.00935109 0)
(0.207241 0.00908512 0)
(0.2124 0.00731803 0)
(0.216628 0.00722776 0)
(0.217868 0.0038983 0)
(0.214253 0.00212892 0)
(0.20393 -0.00652486 0)
(0.158257 -0.0146813 0)
(0.144009 -0.0766539 0)
)
;

boundaryField
{
    movingWall
    {
        type            fixedValue;
        value           uniform (1 0 0);
    }
    fixedWalls
    {
        type            noSlip;
    }
    frontAndBack
    {
        type            empty;
    }
}


// ************************************************************************* //
