/*--------------------------------*- C++ -*----------------------------------*\
  =========                 |
  \\      /  F ield         | OpenFOAM: The Open Source CFD Toolbox
   \\    /   O peration     | Website:  https://openfoam.org
    \\  /    A nd           | Version:  6
     \\/     M anipulation  |
\*---------------------------------------------------------------------------*/
FoamFile
{
    version     2.0;
    format      ascii;
    class       volVectorField;
    location    "0.3";
    object      wallShearStress;
}
// * * * * * * * * * * * * * * * * * * * * * * * * * * * * * * * * * * * * * //

dimensions      [0 2 -2 0 0 0 0];

internalField   uniform (0 0 0);

boundaryField
{
    movingWall
    {
        type            calculated;
        value           nonuniform List<vector> 
20
(
(3.07073 -1.24291 0)
(2.34097 -0.850378 0)
(1.68671 -0.590536 0)
(1.25172 -0.357726 0)
(0.995901 -0.211789 0)
(0.834969 -0.129262 0)
(0.728293 -0.0805301 0)
(0.657967 -0.0494652 0)
(0.614074 -0.027855 0)
(0.590964 -0.0110369 0)
(0.585947 0.0039817 0)
(0.598604 0.0196262 0)
(0.63076 0.0387163 0)
(0.687205 0.0656782 0)
(0.777284 0.10871 0)
(0.918713 0.185048 0)
(1.15292 0.329571 0)
(1.57604 0.575652 0)
(2.25606 0.863697 0)
(3.03748 1.28017 0)
)
;
    }
    fixedWalls
    {
        type            calculated;
        value           nonuniform List<vector> 
60
(
(-0.00162212 0.000825211 0)
(0.0013197 0.00145633 0)
(0.00526933 -0.00351449 0)
(0.00883122 -0.0131678 0)
(0.0120074 -0.0268315 0)
(0.0150088 -0.0442015 0)
(0.0180431 -0.0652162 0)
(0.0212983 -0.0900096 0)
(0.0249664 -0.118883 0)
(0.0293013 -0.152313 0)
(0.0347283 -0.191009 0)
(0.0420357 -0.236099 0)
(0.0527027 -0.289483 0)
(0.0693963 -0.354523 0)
(0.0965293 -0.437252 0)
(0.140084 -0.549013 0)
(0.200419 -0.714655 0)
(0.22208 -0.989458 0)
(-0.111485 -1.45469 0)
(-1.88791 -2.27333 0)
(-0.00174682 -0.000823942 0)
(0.00104574 -0.00165184 0)
(0.00486194 0.00297519 0)
(0.00831828 0.0121715 0)
(0.0114524 0.0253164 0)
(0.0145418 0.0422188 0)
(0.0178806 0.0630197 0)
(0.0217579 0.0881601 0)
(0.0264773 0.118359 0)
(0.0324116 0.154623 0)
(0.0401021 0.198295 0)
(0.0504344 0.251199 0)
(0.064928 0.315947 0)
(0.0861106 0.396495 0)
(0.117752 0.49908 0)
(0.163777 0.634503 0)
(0.218106 0.825548 0)
(0.209624 1.11583 0)
(-0.183949 1.53503 0)
(-1.95155 2.26717 0)
(-0.000871717 0.00159085 0)
(-0.00137487 -0.00155635 0)
(0.00393317 -0.00543925 0)
(0.0134417 -0.00820362 0)
(0.0253324 -0.0095874 0)
(0.0379652 -0.00969743 0)
(0.0499126 -0.00873496 0)
(0.0600027 -0.0069263 0)
(0.0673337 -0.00449546 0)
(0.0712728 -0.00166273 0)
(0.0714618 0.00134577 0)
(0.0678308 0.00428699 0)
(0.0606266 0.00689449 0)
(0.0504368 0.00888101 0)
(0.0382056 0.0099509 0)
(0.0252266 0.00983005 0)
(0.0130836 0.0083191 0)
(0.00353726 0.00537851 0)
(-0.00159957 0.00139234 0)
(-0.000896737 -0.00170189 0)
)
;
    }
    frontAndBack
    {
        type            empty;
    }
}


// ************************************************************************* //
