/*--------------------------------*- C++ -*----------------------------------*\
| =========                 |                                                 |
| \\      /  F ield         | OpenFOAM: The Open Source CFD Toolbox           |
|  \\    /   O peration     | Version:  5.0                                   |
|   \\  /    A nd           | Web:      www.OpenFOAM.org                      |
|    \\/     M anipulation  |                                                 |
\*---------------------------------------------------------------------------*/
FoamFile
{
    version     2.0;
    format      ascii;
    class       volScalarField;
    location    "0.1";
    object      Co;
}
// * * * * * * * * * * * * * * * * * * * * * * * * * * * * * * * * * * * * * //

dimensions      [0 0 0 0 0 0 0];

internalField   nonuniform List<scalar> 
400
(
0.000279571
0.000719483
0.00225421
0.00483794
0.00780145
0.0107768
0.0134477
0.015561
0.0169289
0.0174302
0.0174302
0.0170128
0.015699
0.0135909
0.0108758
0.00782595
0.00479018
0.00216888
0.0006749
0.000307877
0.000673026
0.00426902
0.0103546
0.0176245
0.0252367
0.0324253
0.0385312
0.0430297
0.0455441
0.0458562
0.0457724
0.0456498
0.0432888
0.038854
0.0327003
0.0253728
0.0175885
0.0101898
0.00408267
0.00060892
0.00220684
0.0106186
0.0218469
0.0340399
0.0458952
0.0563596
0.0645977
0.0699923
0.0721472
0.0708956
0.070652
0.0722206
0.0703639
0.0651482
0.0569077
0.0462614
0.0341175
0.0216559
0.0103162
0.002024
0.00506441
0.0191499
0.036121
0.0534061
0.0692629
0.0824095
0.0919281
0.0972198
0.0979783
0.0941847
0.0937092
0.0980239
0.0977911
0.0928672
0.0834388
0.070074
0.0537742
0.0360087
0.0187567
0.00477281
0.00888053
0.0297989
0.0531006
0.0756367
0.0953047
0.110669
0.120813
0.12524
0.123814
0.116725
0.115886
0.123835
0.126154
0.122407
0.11253
0.0969349
0.0766248
0.0532925
0.0294111
0.00848181
0.0136205
0.0425888
0.07286
0.100822
0.12412
0.141269
0.151449
0.154355
0.150084
0.139079
0.137638
0.150029
0.155767
0.154046
0.144455
0.127131
0.10296
0.0737568
0.0424178
0.0131555
0.0193005
0.057604
0.095526
0.129073
0.155766
0.174208
0.183803
0.184538
0.176814
0.161364
0.158929
0.176528
0.186559
0.187784
0.17933
0.16091
0.133122
0.0977522
0.0580238
0.0188726
0.0259826
0.0749801
0.121231
0.160428
0.190129
0.209207
0.217463
0.215306
0.203527
0.183173
0.17918
0.202694
0.217933
0.223165
0.216927
0.198309
0.167382
0.125668
0.0765717
0.0257842
0.033773
0.0948976
0.150079
0.194775
0.226803
0.245567
0.251493
0.245583
0.229112
0.203479
0.197182
0.227208
0.248596
0.259081
0.256466
0.238973
0.205807
0.15787
0.0984868
0.0341128
0.0428331
0.117588
0.182108
0.231759
0.264954
0.281997
0.284247
0.273512
0.251666
0.220484
0.211002
0.247917
0.27636
0.293529
0.296366
0.281925
0.248095
0.19461
0.124261
0.0441635
0.0534125
0.143361
0.217257
0.270661
0.303127
0.316389
0.313141
0.296246
0.268295
0.231446
0.217866
0.261675
0.297922
0.323338
0.333918
0.325245
0.293312
0.235893
0.154435
0.0563504
0.0659198
0.172638
0.255267
0.310177
0.338951
0.345504
0.334361
0.309698
0.274906
0.232499
0.214065
0.264203
0.308653
0.343856
0.36489
0.36563
0.339515
0.28124
0.189557
0.0712542
0.0810527
0.205985
0.295469
0.347999
0.368644
0.364514
0.3425
0.308281
0.266029
0.21851
0.194908
0.250023
0.302448
0.348661
0.383071
0.397795
0.383122
0.329254
0.23008
0.0897264
0.10002
0.244027
0.336231
0.380013
0.386212
0.36636
0.330134
0.284675
0.234722
0.183047
0.154751
0.212523
0.271735
0.329397
0.379799
0.413687
0.417948
0.376796
0.276048
0.113052
0.124832
0.286944
0.373634
0.398748
0.382148
0.3409
0.287409
0.229763
0.172702
0.118578
0.0871908
0.144286
0.207796
0.275886
0.343665
0.401573
0.433724
0.417388
0.326228
0.143103
0.158366
0.332599
0.398455
0.390583
0.341548
0.274002
0.201897
0.135803
0.0904638
0.0565959
0.0286489
0.0673785
0.110826
0.176824
0.260673
0.345215
0.413979
0.438211
0.375725
0.182058
0.203022
0.371024
0.389869
0.331295
0.259134
0.226415
0.222865
0.217213
0.206108
0.186759
0.166333
0.193499
0.212103
0.22462
0.234466
0.259928
0.333535
0.414916
0.410213
0.230346
0.254518
0.37013
0.317908
0.283556
0.303554
0.326408
0.346572
0.360443
0.365735
0.360787
0.350013
0.364371
0.367845
0.361749
0.348108
0.33056
0.315189
0.341472
0.393287
0.279562
0.270218
0.318634
0.34159
0.400402
0.457134
0.503977
0.539635
0.5644
0.57883
0.583238
0.580598
0.584099
0.577369
0.559997
0.531127
0.490034
0.43772
0.381653
0.344071
0.282174
0.270218
0.491568
0.627312
0.712062
0.7664
0.801733
0.824814
0.839566
0.84818
0.851792
0.851792
0.85082
0.845072
0.833636
0.814525
0.783868
0.734374
0.65261
0.514184
0.282174
)
;

boundaryField
{
    movingWall
    {
        type            zeroGradient;
    }
    fixedWalls
    {
        type            zeroGradient;
    }
    frontAndBack
    {
        type            empty;
    }
}


// ************************************************************************* //
