/*--------------------------------*- C++ -*----------------------------------*\
| =========                 |                                                 |
| \\      /  F ield         | OpenFOAM: The Open Source CFD Toolbox           |
|  \\    /   O peration     | Version:  5.0                                   |
|   \\  /    A nd           | Web:      www.OpenFOAM.org                      |
|    \\/     M anipulation  |                                                 |
\*---------------------------------------------------------------------------*/
FoamFile
{
    version     2.0;
    format      ascii;
    class       volScalarField;
    location    "9.5";
    object      epsilon;
}
// * * * * * * * * * * * * * * * * * * * * * * * * * * * * * * * * * * * * * //

dimensions      [0 2 -3 0 0 0 0];

internalField   nonuniform List<scalar> 
400
(
2.5268e-05
9.05218e-05
0.00034243
0.000664868
0.000873742
0.0010361
0.00116873
0.00129574
0.00140789
0.00152253
0.00163043
0.00174427
0.0018592
0.00193279
0.00196607
0.00196766
0.00181783
0.00143452
0.000886228
0.000637973
0.000111398
0.000316516
0.000794517
0.00105527
0.00111493
0.00113566
0.00114254
0.0011825
0.00123326
0.00132245
0.00143482
0.00158093
0.0017543
0.0019589
0.00218323
0.0024022
0.00250397
0.00250948
0.00197382
0.00128759
0.00035047
0.000902884
0.00111124
0.00113342
0.0011005
0.00108054
0.00107006
0.00110308
0.00116338
0.00123998
0.00132966
0.00143073
0.0015522
0.00170279
0.00188963
0.0021161
0.00231273
0.00239074
0.00220118
0.00164789
0.000768126
0.00118224
0.00118785
0.00109628
0.00102152
0.00097781
0.000967139
0.000979136
0.00100407
0.00103069
0.00106985
0.00113235
0.00123115
0.00137714
0.00159134
0.00188082
0.00220154
0.00234959
0.002305
0.00188273
0.00108294
0.00132967
0.00115818
0.00100256
0.000896412
0.000842204
0.000807255
0.000779757
0.000756452
0.00074598
0.000745371
0.000785034
0.000869781
0.00102111
0.00126862
0.00164011
0.00213109
0.0024303
0.00247274
0.00205875
0.0012446
0.00132029
0.00108087
0.00088646
0.000777465
0.000705973
0.000641278
0.000578259
0.000521178
0.000485944
0.000472548
0.000484107
0.000555672
0.000696193
0.00095075
0.0013746
0.00201057
0.00257141
0.00271824
0.00220188
0.00127034
0.00126945
0.000976247
0.000785314
0.000673784
0.000586279
0.000500161
0.000417484
0.00034737
0.000303137
0.000284486
0.000282872
0.000333244
0.00044826
0.000677589
0.00110766
0.00184101
0.00270393
0.00300035
0.00231332
0.00125141
0.00116575
0.000881581
0.000702532
0.000590919
0.000493725
0.000397212
0.000309094
0.000239613
0.000197301
0.000178927
0.000175813
0.000207278
0.000288747
0.000474552
0.00086918
0.00163066
0.00277184
0.0033482
0.00240549
0.00120391
0.00105212
0.000800128
0.000638441
0.000529824
0.000429347
0.000331025
0.000245254
0.000181422
0.000144611
0.000129252
0.000127144
0.000148474
0.000205335
0.000344664
0.000690501
0.00146766
0.00278982
0.0036926
0.00247057
0.00111225
0.000955445
0.000734748
0.000590604
0.000487441
0.000389274
0.000293766
0.000212904
0.000155568
0.000122951
0.0001095
0.000109026
0.000124817
0.000167232
0.000273076
0.000558247
0.00130274
0.00278545
0.00406084
0.0025219
0.0010168
0.000873348
0.000683244
0.000556513
0.000460889
0.000367211
0.000278746
0.000206121
0.000153994
0.000122184
0.000106683
0.000106
0.000118448
0.00015384
0.000241062
0.00048446
0.00117361
0.00275395
0.00439041
0.00254743
0.000932825
0.000820414
0.000648031
0.000533875
0.000444658
0.000361232
0.000280819
0.000211708
0.000161507
0.000130344
0.000114889
0.000114569
0.000123613
0.000152556
0.000231397
0.000451178
0.00108762
0.00273891
0.00468034
0.00255956
0.000842815
0.000779457
0.000628527
0.000524152
0.000444046
0.000365174
0.000290124
0.000226837
0.000180068
0.000149922
0.000133525
0.000133448
0.000141737
0.000168472
0.000238706
0.000441981
0.00104953
0.00273416
0.00483389
0.00256272
0.000757996
0.00075941
0.000636633
0.000530524
0.000451499
0.000377477
0.000310238
0.000253409
0.000209831
0.000180687
0.000162714
0.000162476
0.000170623
0.0001976
0.000268081
0.000463921
0.00104118
0.00275326
0.00489448
0.00256137
0.0006633
0.000734054
0.000653946
0.000551355
0.000473136
0.000402877
0.000340166
0.000287826
0.000247259
0.000220099
0.000201654
0.000201911
0.000210911
0.000240508
0.000316591
0.000522619
0.00109316
0.0028225
0.00488501
0.00250899
0.000563223
0.000725342
0.00069228
0.000606762
0.000524934
0.000454761
0.000392249
0.000340181
0.000299111
0.00027182
0.000252651
0.000253748
0.000265456
0.000302249
0.00039386
0.00063304
0.00122911
0.00296117
0.00462443
0.00242397
0.000456005
0.000681308
0.000709398
0.000679181
0.000615207
0.000546277
0.000480656
0.000424045
0.000379335
0.000348349
0.000331246
0.000335494
0.000355915
0.000413499
0.000547216
0.000877902
0.00155627
0.00324354
0.00418811
0.00227617
0.000305589
0.000601025
0.000788626
0.000841752
0.000821742
0.000763838
0.000689517
0.000622097
0.000571945
0.000536355
0.000537484
0.000558723
0.000616015
0.000749925
0.00102431
0.0016577
0.00248338
0.00378017
0.0038807
0.00208379
0.000313198
0.000601293
0.0010208
0.00120945
0.00127057
0.00126448
0.00123879
0.00122131
0.00123466
0.00128208
0.00138497
0.00158559
0.0018683
0.00232498
0.00291968
0.00382859
0.00453693
0.00439714
0.00382733
0.0018114
0.00022638
0.000349902
0.000637387
0.000923731
0.00113445
0.00126865
0.00134259
0.00138762
0.00140943
0.0014229
0.00142828
0.00143835
0.00144857
0.00147116
0.00148955
0.0015402
0.00160688
0.00168228
0.00166429
0.00148629
)
;

boundaryField
{
    movingWall
    {
        Cmu             0.09;
        kappa           0.41;
        E               9.8;
        type            epsilonWallFunction;
        value           nonuniform List<scalar> 
20
(
0.00022638
0.000349902
0.000637387
0.000923731
0.00113445
0.00126865
0.00134259
0.00138762
0.00140943
0.0014229
0.00142828
0.00143835
0.00144857
0.00147116
0.00148955
0.0015402
0.00160688
0.00168228
0.00166429
0.00148629
)
;
    }
    fixedWalls
    {
        Cmu             0.09;
        kappa           0.41;
        E               9.8;
        type            epsilonWallFunction;
        value           nonuniform List<scalar> 
60
(
2.5268e-05
0.000111398
0.00035047
0.000768126
0.00108294
0.0012446
0.00127034
0.00125141
0.00120391
0.00111225
0.0010168
0.000932825
0.000842815
0.000757996
0.0006633
0.000563223
0.000456005
0.000305589
0.000313198
0.00022638
0.000637973
0.00128759
0.00164789
0.00188273
0.00205875
0.00220188
0.00231332
0.00240549
0.00247057
0.0025219
0.00254743
0.00255956
0.00256272
0.00256137
0.00250899
0.00242397
0.00227617
0.00208379
0.0018114
0.00148629
2.5268e-05
9.05218e-05
0.00034243
0.000664868
0.000873742
0.0010361
0.00116873
0.00129574
0.00140789
0.00152253
0.00163043
0.00174427
0.0018592
0.00193279
0.00196607
0.00196766
0.00181783
0.00143452
0.000886228
0.000637973
)
;
    }
    frontAndBack
    {
        type            empty;
    }
}


// ************************************************************************* //
