/*--------------------------------*- C++ -*----------------------------------*\
| =========                 |                                                 |
| \\      /  F ield         | OpenFOAM: The Open Source CFD Toolbox           |
|  \\    /   O peration     | Version:  5.0                                   |
|   \\  /    A nd           | Web:      www.OpenFOAM.org                      |
|    \\/     M anipulation  |                                                 |
\*---------------------------------------------------------------------------*/
FoamFile
{
    version     2.0;
    format      ascii;
    class       volScalarField;
    location    "9.5";
    object      k;
}
// * * * * * * * * * * * * * * * * * * * * * * * * * * * * * * * * * * * * * //

dimensions      [0 2 -2 0 0 0 0];

internalField   nonuniform List<scalar> 
400
(
7.90116e-06
2.8305e-05
0.000107048
0.000207818
0.000273095
0.000323841
0.000365294
0.000404995
0.000440048
0.000475882
0.000509606
0.000545189
0.000581111
0.000604112
0.00061451
0.000615007
0.000568174
0.000448368
0.000276994
0.000199398
3.4829e-05
0.000121208
0.000255813
0.000413592
0.00048252
0.000557006
0.000602998
0.000667871
0.000721611
0.000784844
0.000845195
0.000908298
0.0009644
0.00102621
0.00108029
0.00110787
0.00111399
0.00100041
0.000664274
0.000402442
0.000109561
0.000370338
0.000532461
0.000613305
0.000667683
0.000714064
0.000752856
0.000801751
0.000846544
0.000895112
0.0009401
0.000983951
0.00102679
0.0010748
0.00112154
0.00115555
0.00116847
0.00112194
0.000814685
0.000515057
0.000240115
0.000582202
0.000665694
0.000700868
0.000725955
0.000747538
0.000774659
0.000806546
0.000837097
0.000865172
0.000889113
0.000919134
0.000961307
0.0010169
0.00108782
0.00115732
0.00118824
0.00118917
0.000956241
0.000588456
0.000338493
0.000696204
0.000718816
0.000717398
0.000724568
0.000739057
0.000752954
0.000758756
0.000753866
0.000747063
0.000746291
0.000767416
0.000811983
0.000885081
0.000993424
0.001131
0.00122753
0.0012524
0.00107888
0.000643475
0.000389008
0.000725707
0.000723087
0.000712622
0.000710902
0.000707639
0.000687799
0.000652272
0.000616409
0.000593927
0.000585564
0.000593845
0.000638827
0.000721467
0.000855927
0.00104712
0.00124565
0.00132581
0.00121446
0.000688211
0.000397046
0.000717698
0.000715717
0.000696769
0.000678525
0.000648876
0.000602687
0.000546691
0.000496776
0.00046486
0.000452016
0.000452016
0.000491375
0.0005719
0.000713776
0.000938267
0.0012415
0.00139916
0.00134129
0.00072304
0.000391131
0.000697228
0.000697257
0.000668914
0.000639842
0.000594237
0.000532349
0.000466436
0.000411411
0.000376244
0.0003612
0.000359455
0.000390009
0.000460326
0.000591946
0.000822118
0.00117651
0.00146272
0.00147884
0.000751845
0.000376285
0.000658319
0.000666617
0.000640183
0.000605921
0.000552024
0.000483201
0.000414596
0.000359798
0.000325488
0.000310951
0.000309532
0.000333123
0.00038985
0.00050558
0.000724131
0.0010991
0.0015102
0.00159906
0.000772184
0.000347639
0.000625445
0.000637779
0.000615314
0.000580246
0.00052383
0.000454176
0.000386921
0.000334959
0.000302308
0.000288169
0.00028815
0.000307434
0.000354714
0.000452822
0.000653891
0.00102923
0.00153366
0.00172203
0.000788224
0.000317809
0.000582246
0.00060613
0.000592087
0.000560029
0.000507079
0.000441318
0.000379783
0.000331362
0.00029929
0.00028309
0.000283234
0.000299308
0.000340667
0.000427675
0.000611123
0.000976265
0.00154474
0.0018243
0.000796201
0.000291563
0.000546321
0.000582166
0.000575196
0.00054858
0.000499724
0.000442058
0.000384064
0.000337709
0.000306576
0.000290468
0.000290695
0.000302753
0.000338486
0.000419543
0.000591728
0.000939141
0.00155117
0.00190869
0.000799987
0.000263433
0.000499613
0.000554286
0.000555694
0.000539582
0.000500652
0.000447874
0.000396139
0.000353946
0.000324721
0.000308783
0.000309509
0.0003207
0.000353402
0.000426889
0.000587429
0.00092175
0.00155858
0.00194908
0.000800974
0.000236923
0.00046961
0.000539375
0.000544885
0.000534819
0.000505551
0.000460995
0.000416974
0.000379719
0.00035297
0.000337387
0.000338501
0.000349639
0.000381706
0.000453145
0.000606674
0.000917715
0.00156225
0.00196124
0.000800545
0.000207329
0.000421817
0.000514534
0.000538012
0.000535308
0.000517233
0.000480605
0.000443271
0.000411336
0.000388089
0.000374241
0.000376004
0.000387721
0.000420293
0.000491608
0.000645884
0.000934673
0.00156479
0.00192781
0.000784169
0.000176051
0.000392933
0.000502387
0.000541708
0.000544402
0.000535756
0.000512436
0.000480947
0.000452549
0.000431218
0.000417982
0.000420201
0.000432797
0.000467278
0.000541503
0.000706051
0.000975618
0.00157035
0.00183632
0.00075759
0.000142545
0.000332039
0.000469953
0.000548459
0.000569599
0.000566898
0.000553678
0.00052696
0.000500908
0.000480174
0.000469419
0.000473444
0.000489928
0.000531897
0.000617179
0.000810366
0.00106895
0.0015876
0.00167422
0.000711393
9.55302e-05
0.00028226
0.000479877
0.000587453
0.000649489
0.000652547
0.000644346
0.000622459
0.000596707
0.000575365
0.000574638
0.000585218
0.000615257
0.00068533
0.00080595
0.00106963
0.00134526
0.00162828
0.00149231
0.000651261
9.79e-05
0.000297828
0.000526961
0.000658792
0.000733691
0.000765064
0.000779876
0.000794775
0.000812748
0.000841808
0.000891009
0.000970031
0.00107801
0.00124072
0.00143583
0.00172299
0.00183327
0.00172003
0.00137214
0.000566131
7.07634e-05
0.00010937
0.000199224
0.000288719
0.000354577
0.000396521
0.000419631
0.000433704
0.000440517
0.000444726
0.000446404
0.000449547
0.000452736
0.00045979
0.000465535
0.000481361
0.000502197
0.000525763
0.000520142
0.000464516
)
;

boundaryField
{
    movingWall
    {
        type            kqRWallFunction;
        value           nonuniform List<scalar> 
20
(
7.07634e-05
0.00010937
0.000199224
0.000288719
0.000354577
0.000396521
0.000419631
0.000433704
0.000440517
0.000444726
0.000446404
0.000449547
0.000452736
0.00045979
0.000465535
0.000481361
0.000502197
0.000525763
0.000520142
0.000464516
)
;
    }
    fixedWalls
    {
        type            kqRWallFunction;
        value           nonuniform List<scalar> 
60
(
7.90116e-06
3.4829e-05
0.000109561
0.000240115
0.000338493
0.000389008
0.000397046
0.000391131
0.000376285
0.000347639
0.000317809
0.000291563
0.000263433
0.000236923
0.000207329
0.000176051
0.000142545
9.55302e-05
9.79e-05
7.07634e-05
0.000199398
0.000402442
0.000515057
0.000588456
0.000643475
0.000688211
0.00072304
0.000751845
0.000772184
0.000788224
0.000796201
0.000799987
0.000800974
0.000800545
0.000784169
0.00075759
0.000711393
0.000651261
0.000566131
0.000464516
7.90116e-06
2.8305e-05
0.000107048
0.000207818
0.000273095
0.000323841
0.000365294
0.000404995
0.000440048
0.000475882
0.000509606
0.000545189
0.000581111
0.000604112
0.00061451
0.000615007
0.000568174
0.000448368
0.000276994
0.000199398
)
;
    }
    frontAndBack
    {
        type            empty;
    }
}


// ************************************************************************* //
