/*--------------------------------*- C++ -*----------------------------------*\
| =========                 |                                                 |
| \\      /  F ield         | OpenFOAM: The Open Source CFD Toolbox           |
|  \\    /   O peration     | Version:  5.0                                   |
|   \\  /    A nd           | Web:      www.OpenFOAM.org                      |
|    \\/     M anipulation  |                                                 |
\*---------------------------------------------------------------------------*/
FoamFile
{
    version     2.0;
    format      ascii;
    class       volScalarField;
    location    "9.5";
    object      nut;
}
// * * * * * * * * * * * * * * * * * * * * * * * * * * * * * * * * * * * * * //

dimensions      [0 2 -1 0 0 0 0];

internalField   nonuniform List<scalar> 
400
(
2.22359e-07
7.96553e-07
3.01183e-06
5.8462e-06
7.68225e-06
9.1097e-06
1.02758e-05
1.13926e-05
1.23787e-05
1.33867e-05
1.43354e-05
1.53364e-05
1.63469e-05
1.69938e-05
1.72863e-05
1.73003e-05
1.59828e-05
1.26126e-05
7.7918e-06
5.60893e-06
9.80049e-07
4.1774e-06
7.41284e-06
1.45889e-05
1.87943e-05
2.45874e-05
2.86419e-05
3.39488e-05
3.8001e-05
4.1921e-05
4.48083e-05
4.69664e-05
4.77149e-05
4.83839e-05
4.81086e-05
4.59844e-05
4.4604e-05
3.58931e-05
2.01201e-05
1.13207e-05
3.08251e-06
1.36712e-05
2.2962e-05
2.98679e-05
3.64579e-05
4.24692e-05
4.76713e-05
5.24464e-05
5.54394e-05
5.81542e-05
5.98207e-05
6.09021e-05
6.11307e-05
6.1057e-05
5.99099e-05
5.67917e-05
5.3132e-05
4.73859e-05
2.71373e-05
1.44886e-05
6.75537e-06
2.58038e-05
3.3576e-05
4.03267e-05
4.64319e-05
5.14345e-05
5.58437e-05
5.9794e-05
6.28102e-05
6.53613e-05
6.65018e-05
6.71462e-05
6.75549e-05
6.75805e-05
6.69261e-05
6.40913e-05
5.77196e-05
5.41678e-05
3.57032e-05
1.65533e-05
9.52221e-06
3.28074e-05
4.01516e-05
4.62012e-05
5.271e-05
5.83688e-05
6.32074e-05
6.64489e-05
6.7616e-05
6.73333e-05
6.72491e-05
6.75174e-05
6.82223e-05
6.90459e-05
7.00135e-05
7.01927e-05
6.36363e-05
5.80857e-05
4.23651e-05
1.8101e-05
1.09428e-05
3.59002e-05
4.35361e-05
5.15587e-05
5.85034e-05
6.38378e-05
6.63925e-05
6.62181e-05
6.56136e-05
6.53315e-05
6.5305e-05
6.55613e-05
6.60984e-05
6.72893e-05
6.93505e-05
7.17896e-05
6.94566e-05
6.15226e-05
4.88343e-05
1.93593e-05
1.11688e-05
3.65182e-05
4.72243e-05
5.56387e-05
6.14969e-05
6.4634e-05
6.53607e-05
6.44298e-05
6.39398e-05
6.41576e-05
6.46383e-05
6.50069e-05
6.52087e-05
6.56678e-05
6.76706e-05
7.15299e-05
7.53492e-05
6.51603e-05
5.39657e-05
2.0339e-05
1.10024e-05
3.75309e-05
4.96324e-05
5.73215e-05
6.23535e-05
6.43689e-05
6.42116e-05
6.33484e-05
6.35747e-05
6.45733e-05
6.56238e-05
6.61426e-05
6.60447e-05
6.60474e-05
6.64541e-05
6.99843e-05
7.63954e-05
6.94697e-05
5.8786e-05
2.11493e-05
1.05848e-05
3.70723e-05
4.99845e-05
5.77736e-05
6.23652e-05
6.38778e-05
6.34801e-05
6.3078e-05
6.42199e-05
6.59345e-05
6.73267e-05
6.78201e-05
6.7267e-05
6.66151e-05
6.67462e-05
6.83458e-05
7.40778e-05
7.35756e-05
6.23218e-05
2.17213e-05
9.77908e-06
3.68481e-05
4.98246e-05
5.76953e-05
6.21647e-05
6.34408e-05
6.31958e-05
6.32855e-05
6.49094e-05
6.68974e-05
6.82534e-05
6.85405e-05
6.81511e-05
6.77143e-05
6.75793e-05
6.89329e-05
7.31828e-05
7.59988e-05
6.57215e-05
2.21724e-05
8.94004e-06
3.49356e-05
4.83948e-05
5.66942e-05
6.12444e-05
6.302e-05
6.28836e-05
6.29782e-05
6.41714e-05
6.59798e-05
6.76076e-05
6.81125e-05
6.80693e-05
6.78942e-05
6.82873e-05
6.93813e-05
7.30895e-05
7.79821e-05
6.82226e-05
2.23967e-05
8.20179e-06
3.2742e-05
4.70696e-05
5.57744e-05
6.09111e-05
6.22183e-05
6.26288e-05
6.27066e-05
6.35531e-05
6.48974e-05
6.60939e-05
6.63823e-05
6.67352e-05
6.75921e-05
6.84602e-05
6.98455e-05
7.29841e-05
7.90645e-05
7.00542e-05
2.25032e-05
7.41054e-06
2.88215e-05
4.39934e-05
5.3022e-05
5.90106e-05
6.17754e-05
6.22258e-05
6.22624e-05
6.26152e-05
6.32994e-05
6.42667e-05
6.46064e-05
6.53068e-05
6.67192e-05
6.87082e-05
7.02668e-05
7.28574e-05
7.99606e-05
7.07301e-05
2.25309e-05
6.66486e-06
2.61361e-05
4.11277e-05
5.03671e-05
5.70164e-05
6.0937e-05
6.16509e-05
6.175e-05
6.1844e-05
6.20571e-05
6.29616e-05
6.34706e-05
6.44827e-05
6.63611e-05
6.89367e-05
7.14017e-05
7.28005e-05
7.97803e-05
7.07291e-05
2.25186e-05
5.83247e-06
2.18154e-05
3.64358e-05
4.72492e-05
5.45085e-05
5.97642e-05
6.11122e-05
6.144e-05
6.15862e-05
6.15869e-05
6.25086e-05
6.30184e-05
6.4148e-05
6.61022e-05
6.8704e-05
7.18401e-05
7.19245e-05
7.80769e-05
6.8471e-05
2.20578e-05
4.95267e-06
1.91574e-05
3.28124e-05
4.35266e-05
5.08133e-05
5.6806e-05
6.02503e-05
6.11965e-05
6.16229e-05
6.1568e-05
6.22354e-05
6.26258e-05
6.35066e-05
6.50172e-05
6.70043e-05
7.08735e-05
6.96967e-05
7.49496e-05
6.56269e-05
2.131e-05
4.01028e-06
1.45639e-05
2.80196e-05
3.98608e-05
4.74635e-05
5.29467e-05
5.74013e-05
5.89367e-05
5.95301e-05
5.95696e-05
5.98704e-05
6.01306e-05
6.06961e-05
6.15776e-05
6.26478e-05
6.73223e-05
6.60807e-05
6.99372e-05
6.02353e-05
2.00104e-05
2.68773e-06
1.19302e-05
2.62803e-05
3.68982e-05
4.62009e-05
5.01723e-05
5.41921e-05
5.60539e-05
5.60287e-05
5.5549e-05
5.52925e-05
5.51672e-05
5.5305e-05
5.63668e-05
5.70729e-05
6.2116e-05
6.5586e-05
6.31228e-05
5.16476e-05
1.83189e-05
2.75416e-06
1.32767e-05
2.44827e-05
3.22962e-05
3.81302e-05
4.16608e-05
4.41872e-05
4.65485e-05
4.81511e-05
4.97455e-05
5.15901e-05
5.34102e-05
5.59817e-05
5.95894e-05
6.35499e-05
6.97865e-05
6.66707e-05
6.05542e-05
4.42734e-05
1.59244e-05
1.99077e-06
3.07674e-06
5.6043e-06
8.12173e-06
9.97422e-06
1.11541e-05
1.18041e-05
1.21999e-05
1.23915e-05
1.25098e-05
1.2557e-05
1.26452e-05
1.27349e-05
1.29331e-05
1.30946e-05
1.35396e-05
1.41256e-05
1.47885e-05
1.46304e-05
1.30659e-05
)
;

boundaryField
{
    movingWall
    {
        type            nutkWallFunction;
        Cmu             0.09;
        kappa           0.41;
        E               9.8;
        value           uniform 0;
    }
    fixedWalls
    {
        type            nutkWallFunction;
        Cmu             0.09;
        kappa           0.41;
        E               9.8;
        value           uniform 0;
    }
    frontAndBack
    {
        type            empty;
    }
}


// ************************************************************************* //
