/*--------------------------------*- C++ -*----------------------------------*\
| =========                 |                                                 |
| \\      /  F ield         | OpenFOAM: The Open Source CFD Toolbox           |
|  \\    /   O peration     | Version:  5.0                                   |
|   \\  /    A nd           | Web:      www.OpenFOAM.org                      |
|    \\/     M anipulation  |                                                 |
\*---------------------------------------------------------------------------*/
FoamFile
{
    version     2.0;
    format      ascii;
    class       volScalarField;
    location    "9.5";
    object      p;
}
// * * * * * * * * * * * * * * * * * * * * * * * * * * * * * * * * * * * * * //

dimensions      [0 2 -2 0 0 0 0];

internalField   nonuniform List<scalar> 
400
(
3.09599e-08
-9.34375e-05
-0.000156625
-0.000439361
-0.00137167
-0.0029072
-0.0046767
-0.00635451
-0.00770005
-0.00858749
-0.00890709
-0.0085686
-0.00756364
-0.00587512
-0.00350796
-0.000602932
0.00252894
0.00528694
0.00699739
0.00736634
9.48499e-05
-1.71184e-05
-0.000269005
-0.000942623
-0.00214388
-0.00376208
-0.00550292
-0.00711168
-0.00841339
-0.00928496
-0.00962902
-0.00939828
-0.00854295
-0.00701834
-0.00484889
-0.00211399
0.000932161
0.0038039
0.00584707
0.00666413
0.000254078
-0.00010869
-0.000788025
-0.0019153
-0.00344951
-0.00518722
-0.00691108
-0.00845838
-0.0097062
-0.010522
-0.0108428
-0.0106384
-0.00988877
-0.00858101
-0.00671394
-0.00433315
-0.00158649
0.00121797
0.00356326
0.00474652
-3.97933e-05
-0.000644279
-0.00176049
-0.00331556
-0.005113
-0.00694183
-0.0086352
-0.0100756
-0.0111693
-0.0118662
-0.0121388
-0.0119672
-0.0113316
-0.010227
-0.00865606
-0.00664874
-0.00428662
-0.00174766
0.00059296
0.00184707
-0.000941354
-0.00174945
-0.00316654
-0.0049534
-0.00685206
-0.00866489
-0.0102606
-0.011562
-0.0125226
-0.0131236
-0.0133535
-0.0132037
-0.0126682
-0.011748
-0.0104488
-0.00879242
-0.00682694
-0.00465021
-0.00252407
-0.00133592
-0.00240197
-0.00329227
-0.00480274
-0.00662074
-0.00848239
-0.0101996
-0.0116666
-0.0128343
-0.0136826
-0.0142048
-0.0143992
-0.0142669
-0.0138122
-0.0130428
-0.0119699
-0.0106125
-0.00900451
-0.0072071
-0.00547569
-0.00435101
-0.00407407
-0.00496389
-0.00641584
-0.00814761
-0.00989574
-0.0114815
-0.0128161
-0.0138653
-0.0146205
-0.0150819
-0.0152527
-0.0151386
-0.0147481
-0.0140949
-0.0131964
-0.0120732
-0.010758
-0.00929827
-0.00794339
-0.00694062
-0.00562077
-0.00646029
-0.00779607
-0.00940488
-0.0110194
-0.0124745
-0.0136925
-0.0146461
-0.015331
-0.0157502
-0.0159082
-0.0158116
-0.0154704
-0.0149014
-0.0141285
-0.0131779
-0.0120867
-0.0108965
-0.00985276
-0.00896324
-0.00681678
-0.0076017
-0.00881485
-0.0103096
-0.0118067
-0.0131568
-0.0142882
-0.0151753
-0.0158141
-0.0162073
-0.0163595
-0.0162766
-0.0159686
-0.0154539
-0.0147619
-0.0139267
-0.0129989
-0.0119947
-0.0111753
-0.0103881
-0.00757945
-0.00827862
-0.0094009
-0.0108178
-0.0122321
-0.0135167
-0.014599
-0.0154511
-0.016067
-0.0164484
-0.0165988
-0.0165234
-0.0162319
-0.0157435
-0.015092
-0.0143176
-0.0135024
-0.0125904
-0.0119585
-0.0111963
-0.00786514
-0.00848162
-0.00954851
-0.0109152
-0.0122886
-0.0135497
-0.0146212
-0.0154697
-0.0160851
-0.0164673
-0.0166187
-0.0165437
-0.0162521
-0.0157632
-0.0151154
-0.0143475
-0.0136065
-0.0126757
-0.0122389
-0.0113848
-0.00766442
-0.00823588
-0.00926627
-0.0106104
-0.0119821
-0.0132564
-0.0143518
-0.0152263
-0.0158635
-0.0162596
-0.0164154
-0.0163341
-0.0160258
-0.0155109
-0.0148316
-0.0140453
-0.0132752
-0.0122989
-0.0120592
-0.0109397
-0.00705655
-0.00761013
-0.00861478
-0.00993495
-0.0113292
-0.0126447
-0.0137932
-0.0147209
-0.0154018
-0.0158259
-0.0159909
-0.0158981
-0.0155586
-0.0149941
-0.0142534
-0.0133997
-0.0125475
-0.0115337
-0.0113704
-0.00989248
-0.006174
-0.00669546
-0.00765868
-0.00893762
-0.0103503
-0.0117238
-0.0129501
-0.0139574
-0.0147049
-0.0151734
-0.0153556
-0.0152501
-0.0148681
-0.0142334
-0.0134024
-0.0124386
-0.0114726
-0.0103879
-0.0101699
-0.00832506
-0.00519033
-0.00563652
-0.00649413
-0.00768981
-0.00909457
-0.0105288
-0.0118506
-0.0129602
-0.0137968
-0.0143276
-0.014539
-0.0144252
-0.0139957
-0.0132762
-0.0123308
-0.0112197
-0.0100995
-0.00886587
-0.00849357
-0.00626949
-0.00430509
-0.0045669
-0.00520089
-0.00624488
-0.00761177
-0.00910371
-0.0105342
-0.0117669
-0.0127158
-0.0133306
-0.0135896
-0.0134831
-0.0130164
-0.0122104
-0.0111351
-0.00983936
-0.00849968
-0.00699835
-0.00632956
-0.00351996
-0.00370533
-0.00362393
-0.00390443
-0.00472709
-0.00602618
-0.00756555
-0.00910888
-0.0104781
-0.0115591
-0.0122801
-0.0126087
-0.012528
-0.0120524
-0.0111739
-0.00996091
-0.008434
-0.00676258
-0.00479488
-0.00346037
0.000740645
-0.00341117
-0.00280538
-0.00265973
-0.00323826
-0.00445629
-0.00602773
-0.00767583
-0.00918918
-0.0104213
-0.0112744
-0.0117018
-0.0116766
-0.0112119
-0.0102958
-0.00895718
-0.00715184
-0.00499215
-0.00218251
0.00069648
0.00829016
-0.00335711
-0.00213837
-0.00168637
-0.00207681
-0.00321624
-0.00480711
-0.00654422
-0.00818585
-0.00955587
-0.0105413
-0.0110799
-0.0111413
-0.0107094
-0.00976197
-0.0082861
-0.00617689
-0.00335208
0.00104894
0.00727725
0.0203503
-0.00384994
-0.000740976
-0.000171788
-0.000737471
-0.0019225
-0.00356865
-0.00542085
-0.00719909
-0.00870374
-0.0098067
-0.0104402
-0.0105653
-0.0101584
-0.00919361
-0.00762727
-0.00529589
-0.00134037
0.00566687
0.0177087
0.0356553
)
;

boundaryField
{
    movingWall
    {
        type            zeroGradient;
    }
    fixedWalls
    {
        type            zeroGradient;
    }
    frontAndBack
    {
        type            empty;
    }
}


// ************************************************************************* //
