/*--------------------------------*- C++ -*----------------------------------*\
| =========                 |                                                 |
| \\      /  F ield         | OpenFOAM: The Open Source CFD Toolbox           |
|  \\    /   O peration     | Version:  5.0                                   |
|   \\  /    A nd           | Web:      www.OpenFOAM.org                      |
|    \\/     M anipulation  |                                                 |
\*---------------------------------------------------------------------------*/
FoamFile
{
    version     2.0;
    format      ascii;
    class       surfaceScalarField;
    location    "9.5";
    object      phi;
}
// * * * * * * * * * * * * * * * * * * * * * * * * * * * * * * * * * * * * * //

dimensions      [0 3 -1 0 0 0 0];

internalField   nonuniform List<scalar> 
760
(
1.1646e-07
-1.16463e-07
-1.78729e-07
2.95189e-07
-1.04714e-06
8.68413e-07
-2.38478e-06
1.33764e-06
-3.7894e-06
1.40462e-06
-5.04035e-06
1.25096e-06
-6.09554e-06
1.05519e-06
-6.93142e-06
8.35877e-07
-7.54165e-06
6.10229e-07
-7.9448e-06
4.03147e-07
-8.15344e-06
2.08642e-07
-8.1559e-06
2.46083e-09
-7.95048e-06
-2.05416e-07
-7.53559e-06
-4.14898e-07
-6.84284e-06
-6.9274e-07
-5.84969e-06
-9.93154e-07
-4.50023e-06
-1.34946e-06
-2.83942e-06
-1.66081e-06
-1.0897e-06
-1.74972e-06
-1.0897e-06
-4.31468e-07
3.15005e-07
-1.45859e-06
1.32231e-06
-2.83152e-06
2.24135e-06
-4.08182e-06
2.58793e-06
-5.16195e-06
2.48475e-06
-6.10737e-06
2.19637e-06
-6.87913e-06
1.82694e-06
-7.48246e-06
1.43921e-06
-7.93356e-06
1.06133e-06
-8.22449e-06
6.94076e-07
-8.34037e-06
3.24524e-07
-8.28352e-06
-5.43931e-08
-8.06677e-06
-4.2216e-07
-7.65169e-06
-8.29977e-07
-7.03728e-06
-1.30716e-06
-6.17504e-06
-1.85539e-06
-5.02942e-06
-2.49508e-06
-3.53837e-06
-3.15187e-06
-1.73739e-06
-3.5507e-06
-2.82708e-06
-1.02649e-06
1.34149e-06
-2.36122e-06
2.65704e-06
-3.53751e-06
3.41763e-06
-4.51648e-06
3.5669e-06
-5.34383e-06
3.31211e-06
-6.02653e-06
2.87907e-06
-6.56219e-06
2.3626e-06
-6.94096e-06
1.81798e-06
-7.18345e-06
1.30382e-06
-7.29291e-06
8.03535e-07
-7.29194e-06
3.23555e-07
-7.19032e-06
-1.56014e-07
-6.97062e-06
-6.41859e-07
-6.6175e-06
-1.1831e-06
-6.11872e-06
-1.80593e-06
-5.43968e-06
-2.53443e-06
-4.55072e-06
-3.38404e-06
-3.38617e-06
-4.31642e-06
-1.86555e-06
-5.07131e-06
-4.69264e-06
-1.24741e-06
2.5889e-06
-2.46844e-06
3.87807e-06
-3.45495e-06
4.40415e-06
-4.22548e-06
4.33743e-06
-4.83248e-06
3.91911e-06
-5.29265e-06
3.33924e-06
-5.62179e-06
2.69174e-06
-5.84699e-06
2.04318e-06
-5.97629e-06
1.43312e-06
-6.02423e-06
8.51475e-07
-5.992e-06
2.9132e-07
-5.88127e-06
-2.66736e-07
-5.67989e-06
-8.43246e-07
-5.38656e-06
-1.47642e-06
-4.99163e-06
-2.20087e-06
-4.47142e-06
-3.05464e-06
-3.79229e-06
-4.06317e-06
-2.89755e-06
-5.21116e-06
-1.65557e-06
-6.31329e-06
-6.3482e-06
-1.17293e-06
3.76183e-06
-2.20579e-06
4.91094e-06
-3.00674e-06
5.2051e-06
-3.61117e-06
4.94186e-06
-4.05767e-06
4.36561e-06
-4.37388e-06
3.65545e-06
-4.58927e-06
2.90713e-06
-4.72926e-06
2.18318e-06
-4.8004e-06
1.50426e-06
-4.80966e-06
8.60732e-07
-4.75761e-06
2.39272e-07
-4.64419e-06
-3.80162e-07
-4.46562e-06
-1.02181e-06
-4.2234e-06
-1.71864e-06
-3.91462e-06
-2.50964e-06
-3.52626e-06
-3.443e-06
-3.02464e-06
-4.56479e-06
-2.34359e-06
-5.89221e-06
-1.38463e-06
-7.27225e-06
-7.73284e-06
-9.64297e-07
4.72613e-06
-1.78988e-06
5.73652e-06
-2.42378e-06
5.83899e-06
-2.889e-06
5.40709e-06
-3.21965e-06
4.69625e-06
-3.44614e-06
3.88194e-06
-3.59737e-06
3.05837e-06
-3.69116e-06
2.27697e-06
-3.73366e-06
1.54676e-06
-3.72847e-06
8.55546e-07
-3.67569e-06
1.86492e-07
-3.57396e-06
-4.81901e-07
-3.42207e-06
-1.17369e-06
-3.22249e-06
-1.91823e-06
-2.97863e-06
-2.7535e-06
-2.68941e-06
-3.73222e-06
-2.33948e-06
-4.91473e-06
-1.86445e-06
-6.36724e-06
-1.11942e-06
-8.01728e-06
-8.85226e-06
-7.30851e-07
5.45698e-06
-1.34303e-06
6.3487e-06
-1.81639e-06
6.31236e-06
-2.16076e-06
5.75145e-06
-2.40424e-06
4.93973e-06
-2.57156e-06
4.04926e-06
-2.68434e-06
3.17114e-06
-2.75462e-06
2.34725e-06
-2.78757e-06
1.5797e-06
-2.7851e-06
8.53074e-07
-2.7456e-06
1.47e-07
-2.66647e-06
-5.6103e-07
-2.54612e-06
-1.29405e-06
-2.38725e-06
-2.07709e-06
-2.19751e-06
-2.94325e-06
-1.98359e-06
-3.94614e-06
-1.73987e-06
-5.15845e-06
-1.41495e-06
-6.69216e-06
-9.1588e-07
-8.51636e-06
-9.76814e-06
-4.76254e-07
5.93323e-06
-9.02734e-07
6.77518e-06
-1.22843e-06
6.63805e-06
-1.46814e-06
5.99117e-06
-1.64107e-06
5.11266e-06
-1.76416e-06
4.17235e-06
-1.85095e-06
3.25794e-06
-1.90856e-06
2.40485e-06
-1.9403e-06
1.61145e-06
-1.94669e-06
8.59462e-07
-1.92531e-06
1.25622e-07
-1.87323e-06
-6.13108e-07
-1.78868e-06
-1.3786e-06
-1.67408e-06
-2.19169e-06
-1.5387e-06
-3.07863e-06
-1.39479e-06
-4.09004e-06
-1.24239e-06
-5.31085e-06
-1.04111e-06
-6.89344e-06
-7.07228e-07
-8.85024e-06
-1.04754e-05
-2.55382e-07
6.18861e-06
-4.91725e-07
7.01152e-06
-6.75327e-07
6.82165e-06
-8.20236e-07
6.13608e-06
-9.30216e-07
5.22264e-06
-1.01459e-06
4.25673e-06
-1.07915e-06
3.32249e-06
-1.12641e-06
2.45211e-06
-1.15762e-06
1.64266e-06
-1.17249e-06
8.74331e-07
-1.16914e-06
1.22273e-07
-1.14523e-06
-6.37019e-07
-1.09945e-06
-1.42438e-06
-1.03392e-06
-2.25722e-06
-9.57785e-07
-3.15477e-06
-8.85163e-07
-4.16267e-06
-8.2008e-07
-5.37593e-06
-7.31383e-07
-6.98213e-06
-5.59536e-07
-9.02209e-06
-1.10349e-05
-2.75092e-08
6.21612e-06
-1.03353e-07
7.08736e-06
-1.63378e-07
6.88168e-06
-2.13734e-07
6.18644e-06
-2.60008e-07
5.26891e-06
-3.03973e-07
4.3007e-06
-3.44468e-07
3.36298e-06
-3.79481e-07
2.48713e-06
-4.0793e-07
1.67111e-06
-4.2925e-07
8.95651e-07
-4.42741e-07
1.35764e-07
-4.47304e-07
-6.32456e-07
-4.42754e-07
-1.42893e-06
-4.30924e-07
-2.26905e-06
-4.20078e-07
-3.16561e-06
-4.19745e-07
-4.163e-06
-4.53064e-07
-5.34261e-06
-4.6882e-07
-6.96638e-06
-4.17002e-07
-9.0739e-06
-1.14519e-05
1.84891e-07
6.03123e-06
2.8181e-07
6.99044e-06
3.51867e-07
6.81162e-06
3.81484e-07
6.15682e-06
3.93849e-07
5.25655e-06
3.90522e-07
4.30402e-06
3.76794e-07
3.37671e-06
3.57235e-07
2.50669e-06
3.34223e-07
1.69412e-06
3.08253e-07
9.21622e-07
2.78787e-07
1.65229e-07
2.45349e-07
-5.99018e-07
2.06833e-07
-1.39042e-06
1.61232e-07
-2.22345e-06
1.02268e-07
-3.10665e-06
4.09246e-09
-4.06482e-06
-1.0262e-07
-5.2359e-06
-2.4188e-07
-6.82712e-06
-3.1742e-07
-8.99836e-06
-1.17693e-05
3.85693e-07
5.64554e-06
6.44687e-07
6.73145e-06
8.37916e-07
6.61839e-06
9.60208e-07
6.03453e-06
1.03957e-06
5.17718e-06
1.08461e-06
4.25899e-06
1.1041e-06
3.35722e-06
1.10491e-06
2.50587e-06
1.09061e-06
1.70842e-06
1.06173e-06
9.50508e-07
1.01644e-06
2.10517e-07
9.52732e-07
-5.3531e-07
8.67608e-07
-1.30529e-06
7.58467e-07
-2.1143e-06
6.19033e-07
-2.96721e-06
4.47114e-07
-3.8929e-06
2.18681e-07
-5.00747e-06
-5.21478e-08
-6.55629e-06
-2.04769e-07
-8.84574e-06
-1.19741e-05
5.82885e-07
5.06265e-06
9.9835e-07
6.31599e-06
1.31178e-06
6.30496e-06
1.53243e-06
5.81388e-06
1.68639e-06
5.02322e-06
1.78933e-06
4.15605e-06
1.85108e-06
3.29548e-06
1.87948e-06
2.47747e-06
1.87889e-06
1.709e-06
1.85e-06
9.79402e-07
1.78985e-06
2.70669e-07
1.69532e-06
-4.40782e-07
1.56168e-06
-1.17165e-06
1.38496e-06
-1.93759e-06
1.16147e-06
-2.74372e-06
8.8795e-07
-3.61938e-06
5.41978e-07
-4.6615e-06
1.76266e-07
-6.19057e-06
-6.71729e-08
-8.60231e-06
-1.20413e-05
7.52492e-07
4.31016e-06
1.31487e-06
5.75361e-06
1.74595e-06
5.87388e-06
2.08227e-06
5.47756e-06
2.32913e-06
4.77636e-06
2.50578e-06
3.9794e-06
2.62346e-06
3.1778e-06
2.69044e-06
2.41048e-06
2.71153e-06
1.68792e-06
2.68757e-06
1.00336e-06
2.61492e-06
3.43314e-07
2.48889e-06
-3.14745e-07
2.30443e-06
-9.87195e-07
2.05587e-06
-1.68903e-06
1.73941e-06
-2.42726e-06
1.35609e-06
-3.23606e-06
8.94749e-07
-4.20016e-06
4.2831e-07
-5.72414e-06
8.17386e-08
-8.25573e-06
-1.19595e-05
8.96814e-07
3.41335e-06
1.58582e-06
5.0646e-06
2.14048e-06
5.31922e-06
2.60254e-06
5.01549e-06
2.96056e-06
4.41834e-06
3.22795e-06
3.71202e-06
3.41696e-06
2.98879e-06
3.53585e-06
2.29159e-06
3.589e-06
1.63476e-06
3.57757e-06
1.01479e-06
3.49708e-06
4.23809e-07
3.34039e-06
-1.58056e-07
3.10451e-06
-7.51316e-07
2.78156e-06
-1.36608e-06
2.36637e-06
-2.01207e-06
1.86888e-06
-2.73858e-06
1.2826e-06
-3.61387e-06
6.97358e-07
-5.13889e-06
2.25492e-07
-7.78387e-06
-1.1734e-05
9.1512e-07
2.49823e-06
1.71879e-06
4.26093e-06
2.42267e-06
4.61534e-06
3.03347e-06
4.4047e-06
3.53263e-06
3.91917e-06
3.91923e-06
3.32542e-06
4.20258e-06
2.70544e-06
4.39194e-06
2.10223e-06
4.49148e-06
1.53523e-06
4.50328e-06
1.003e-06
4.42444e-06
5.0264e-07
4.24425e-06
2.21373e-08
3.96118e-06
-4.68248e-07
3.56819e-06
-9.73091e-07
3.05707e-06
-1.50095e-06
2.44803e-06
-2.12953e-06
1.73263e-06
-2.89848e-06
1.02306e-06
-4.42932e-06
4.23918e-07
-7.18473e-06
-1.13101e-05
8.30284e-07
1.66795e-06
1.71319e-06
3.37802e-06
2.58099e-06
3.74755e-06
3.35793e-06
3.62775e-06
4.01529e-06
3.26181e-06
4.54425e-06
2.79646e-06
4.94331e-06
2.30638e-06
5.22034e-06
1.8252e-06
5.38003e-06
1.37554e-06
5.42595e-06
9.57069e-07
5.35729e-06
5.71302e-07
5.17677e-06
2.02659e-07
4.86277e-06
-1.54246e-07
4.42612e-06
-5.36437e-07
3.84721e-06
-9.22042e-07
3.15163e-06
-1.43396e-06
2.32983e-06
-2.07668e-06
1.49398e-06
-3.59346e-06
7.00661e-07
-6.39141e-06
-1.06095e-05
3.51294e-07
1.31665e-06
1.36346e-06
2.36586e-06
2.4225e-06
2.68851e-06
3.40738e-06
2.64288e-06
4.25671e-06
2.41248e-06
4.95551e-06
2.09766e-06
5.50071e-06
1.76119e-06
5.89501e-06
1.43089e-06
6.14666e-06
1.12389e-06
6.26282e-06
8.40908e-07
6.24738e-06
5.86745e-07
6.10961e-06
3.4043e-07
5.84363e-06
1.11738e-07
5.44265e-06
-1.35465e-07
4.88226e-06
-3.61644e-07
4.18867e-06
-7.40376e-07
3.3323e-06
-1.2203e-06
2.40523e-06
-2.66639e-06
1.23426e-06
-5.22044e-06
-9.3752e-06
-5.03765e-07
1.82042e-06
6.14015e-07
1.24807e-06
1.98912e-06
1.3134e-06
3.25339e-06
1.37861e-06
4.34761e-06
1.31825e-06
5.26766e-06
1.1776e-06
6.01584e-06
1.01301e-06
6.58904e-06
8.57689e-07
7.0037e-06
7.09231e-07
7.26814e-06
5.76475e-07
7.402e-06
4.52884e-07
7.4025e-06
3.39931e-07
7.28061e-06
2.33622e-07
7.02515e-06
1.20001e-07
6.65105e-06
1.24495e-08
6.14802e-06
-2.37346e-07
5.46156e-06
-5.33838e-07
4.51524e-06
-1.72008e-06
2.65621e-06
-3.3614e-06
-6.71899e-06
1.82042e-06
3.06849e-06
4.38189e-06
5.7605e-06
7.07876e-06
8.25636e-06
9.26937e-06
1.01271e-05
1.08363e-05
1.14128e-05
1.18657e-05
1.22056e-05
1.24392e-05
1.25592e-05
1.25717e-05
1.23343e-05
1.18005e-05
1.00804e-05
6.71899e-06
)
;

boundaryField
{
    movingWall
    {
        type            calculated;
        value           uniform 0;
    }
    fixedWalls
    {
        type            calculated;
        value           uniform 0;
    }
    frontAndBack
    {
        type            empty;
        value           nonuniform 0();
    }
}


// ************************************************************************* //
