/*--------------------------------*- C++ -*----------------------------------*\
| =========                 |                                                 |
| \\      /  F ield         | OpenFOAM: The Open Source CFD Toolbox           |
|  \\    /   O peration     | Version:  5.0                                   |
|   \\  /    A nd           | Web:      www.OpenFOAM.org                      |
|    \\/     M anipulation  |                                                 |
\*---------------------------------------------------------------------------*/
FoamFile
{
    version     2.0;
    format      ascii;
    class       volVectorField;
    location    "9.5";
    object      U;
}
// * * * * * * * * * * * * * * * * * * * * * * * * * * * * * * * * * * * * * //

dimensions      [0 1 -1 0 0 0 0];

internalField   nonuniform List<vector> 
400
(
(0.00283755 -0.00327233 0)
(0.0013164 -0.000382094 0)
(-0.00757341 0.00433182 0)
(-0.0315966 0.0119109 0)
(-0.064706 0.0143732 0)
(-0.0910594 0.0124453 0)
(-0.11478 0.0106061 0)
(-0.132642 0.00824262 0)
(-0.146877 0.00623185 0)
(-0.156488 0.0039857 0)
(-0.162082 0.00218526 0)
(-0.164183 0.00026741 0)
(-0.162495 -0.00295341 0)
(-0.15543 -0.00505099 0)
(-0.143877 -0.00849341 0)
(-0.125893 -0.0114247 0)
(-0.102029 -0.0149221 0)
(-0.0718555 -0.0168986 0)
(-0.0384986 -0.0153154 0)
(-0.00936298 -0.00427213 0)
(-0.00246846 -0.00115156 0)
(-0.0144098 0.0133033 0)
(-0.0415053 0.0324046 0)
(-0.0701616 0.0409753 0)
(-0.0948216 0.0396921 0)
(-0.115118 0.0353918 0)
(-0.132213 0.0297497 0)
(-0.144861 0.0238904 0)
(-0.15564 0.0171705 0)
(-0.162667 0.0112479 0)
(-0.166817 0.00539272 0)
(-0.167348 -0.00036705 0)
(-0.164463 -0.0067276 0)
(-0.157952 -0.0137336 0)
(-0.147331 -0.0221603 0)
(-0.131806 -0.0317198 0)
(-0.111111 -0.0426199 0)
(-0.0849028 -0.0523801 0)
(-0.0529531 -0.0551498 0)
(-0.0196236 -0.0363135 0)
(-0.00875771 0.01547 0)
(-0.0330016 0.0418704 0)
(-0.0598187 0.0579633 0)
(-0.0823232 0.0618288 0)
(-0.10055 0.0578447 0)
(-0.115419 0.0503538 0)
(-0.127271 0.0412736 0)
(-0.136276 0.0317765 0)
(-0.142384 0.0232642 0)
(-0.145459 0.0146891 0)
(-0.146516 0.00625247 0)
(-0.14535 -0.00235074 0)
(-0.142376 -0.0113009 0)
(-0.136465 -0.0211237 0)
(-0.127845 -0.0324765 0)
(-0.115666 -0.0457948 0)
(-0.0994705 -0.0614185 0)
(-0.0787416 -0.0784365 0)
(-0.0518324 -0.0909266 0)
(-0.0222467 -0.079521 0)
(-0.0127167 0.0398524 0)
(-0.0383013 0.0660144 0)
(-0.06138 0.0783917 0)
(-0.078752 0.0788948 0)
(-0.0922295 0.0722249 0)
(-0.102591 0.0621501 0)
(-0.110162 0.050542 0)
(-0.11551 0.0386866 0)
(-0.118787 0.0273297 0)
(-0.120489 0.0164047 0)
(-0.120641 0.00597525 0)
(-0.119199 -0.00447932 0)
(-0.116093 -0.0154007 0)
(-0.111084 -0.0274285 0)
(-0.104144 -0.0412091 0)
(-0.0948844 -0.0573998 0)
(-0.0825997 -0.0763759 0)
(-0.0664024 -0.097574 0)
(-0.0443606 -0.11669 0)
(-0.0201666 -0.114567 0)
(-0.0127397 0.0627661 0)
(-0.0358777 0.0874526 0)
(-0.0544019 0.0956843 0)
(-0.0680159 0.0926575 0)
(-0.0781015 0.0829409 0)
(-0.0853097 0.0701446 0)
(-0.090283 0.0561911 0)
(-0.0936602 0.0424169 0)
(-0.0956604 0.0294029 0)
(-0.0964465 0.01708 0)
(-0.0960079 0.00523558 0)
(-0.0943454 -0.00659606 0)
(-0.0914144 -0.01888 0)
(-0.0871666 -0.0323115 0)
(-0.0816015 -0.0476712 0)
(-0.0746214 -0.0658648 0)
(-0.0656999 -0.0876749 0)
(-0.0534625 -0.113118 0)
(-0.0359182 -0.138587 0)
(-0.0177304 -0.144076 0)
(-0.0107581 0.0838321 0)
(-0.0296639 0.105887 0)
(-0.044164 0.110123 0)
(-0.0547756 0.103472 0)
(-0.0622428 0.0907511 0)
(-0.0673768 0.0755461 0)
(-0.070859 0.0598015 0)
(-0.0731966 0.0446969 0)
(-0.074504 0.0305463 0)
(-0.0748563 0.0171416 0)
(-0.0742713 0.00418491 0)
(-0.0727223 -0.00874001 0)
(-0.0701724 -0.0221092 0)
(-0.0666215 -0.0365597 0)
(-0.0621302 -0.0528877 0)
(-0.0567588 -0.0721191 0)
(-0.0503733 -0.0953838 0)
(-0.0415592 -0.123565 0)
(-0.0301682 -0.154767 0)
(-0.0120253 -0.168064 0)
(-0.00877747 0.101232 0)
(-0.0222824 0.120567 0)
(-0.0332958 0.121452 0)
(-0.0411564 0.111664 0)
(-0.0465605 0.0964878 0)
(-0.0502858 0.0794379 0)
(-0.0528496 0.0623986 0)
(-0.054594 0.0463094 0)
(-0.0555889 0.0312811 0)
(-0.0558855 0.0170429 0)
(-0.0554701 0.00323074 0)
(-0.0542818 -0.0105903 0)
(-0.0522681 -0.0248832 0)
(-0.0494372 -0.0401927 0)
(-0.0458898 -0.0572487 0)
(-0.0417652 -0.0771403 0)
(-0.0372395 -0.101197 0)
(-0.0308789 -0.131337 0)
(-0.0242616 -0.166542 0)
(-0.00962641 -0.187786 0)
(-0.00582117 0.11398 0)
(-0.0147898 0.131475 0)
(-0.022698 0.129794 0)
(-0.0280507 0.117659 0)
(-0.0317819 0.100711 0)
(-0.0344359 0.0823543 0)
(-0.0363487 0.0643853 0)
(-0.0377239 0.04757 0)
(-0.0385933 0.0319076 0)
(-0.0389768 0.0170643 0)
(-0.0388351 0.00260785 0)
(-0.038096 -0.0119207 0)
(-0.0367004 -0.0269581 0)
(-0.0346611 -0.0429561 0)
(-0.0320993 -0.0605154 0)
(-0.0291738 -0.0807033 0)
(-0.0263251 -0.105074 0)
(-0.0220371 -0.136391 0)
(-0.0195474 -0.174341 0)
(-0.00607713 -0.203375 0)
(-0.00358252 0.121888 0)
(-0.00785602 0.138288 0)
(-0.012673 0.135017 0)
(-0.0157167 0.121593 0)
(-0.0179893 0.10358 0)
(-0.0197172 0.0844425 0)
(-0.0210671 0.0658962 0)
(-0.0221307 0.0486094 0)
(-0.0228996 0.032531 0)
(-0.023365 0.0172764 0)
(-0.0234849 0.00236384 0)
(-0.0232014 -0.0126802 0)
(-0.022468 -0.0282699 0)
(-0.0212917 -0.0447811 0)
(-0.019814 -0.0626648 0)
(-0.0181456 -0.0829149 0)
(-0.0171425 -0.107301 0)
(-0.0144087 -0.139354 0)
(-0.0156806 -0.179272 0)
(-0.00424646 -0.215918 0)
(-0.000166322 0.12506 0)
(-0.00130448 0.142033 0)
(-0.00327335 0.137789 0)
(-0.00409713 0.123719 0)
(-0.00498886 0.105264 0)
(-0.00579232 0.0857891 0)
(-0.00655479 0.0669738 0)
(-0.00727059 0.0494441 0)
(-0.00789238 0.0331371 0)
(-0.00839171 0.0176499 0)
(-0.00873716 0.00247775 0)
(-0.0088983 -0.0128619 0)
(-0.00885933 -0.0287686 0)
(-0.00862585 -0.0455611 0)
(-0.00835305 -0.0635527 0)
(-0.00799366 -0.0836154 0)
(-0.00912779 -0.107666 0)
(-0.00765656 -0.139982 0)
(-0.0125449 -0.18131 0)
(-0.00175258 -0.225525 0)
(0.00207669 0.123497 0)
(0.00467295 0.141798 0)
(0.00587983 0.137578 0)
(0.00708001 0.123819 0)
(0.00756092 0.105543 0)
(0.00774611 0.0862423 0)
(0.00764543 0.0675179 0)
(0.00735011 0.0500003 0)
(0.00693931 0.033666 0)
(0.00645394 0.018139 0)
(0.00591134 0.00292287 0)
(0.00531212 -0.0124659 0)
(0.00462963 -0.028416 0)
(0.00385945 -0.0452184 0)
(0.00279536 -0.0630731 0)
(0.00172918 -0.0826804 0)
(-0.00169335 -0.106307 0)
(-0.00135794 -0.138321 0)
(-0.010124 -0.181301 0)
(-3.86615e-06 -0.232773 0)
(0.00410943 0.11873 0)
(0.0105681 0.138656 0)
(0.0143059 0.135456 0)
(0.017757 0.122738 0)
(0.0198397 0.104861 0)
(0.0211714 0.0859849 0)
(0.0218923 0.0675703 0)
(0.0221398 0.0502651 0)
(0.0220263 0.0340934 0)
(0.0216078 0.0187274 0)
(0.0208891 0.00369981 0)
(0.0198499 -0.0114677 0)
(0.0184136 -0.027159 0)
(0.0165906 -0.0436608 0)
(0.0141286 -0.0610941 0)
(0.0113123 -0.0799999 0)
(0.00562944 -0.10284 0)
(0.00487102 -0.134243 0)
(-0.00818881 -0.17902 0)
(0.00268021 -0.237523 0)
(0.00635325 0.109265 0)
(0.016076 0.131721 0)
(0.0227799 0.129867 0)
(0.028154 0.119069 0)
(0.0320753 0.1024 0)
(0.0347149 0.0844494 0)
(0.0364367 0.0667566 0)
(0.0373929 0.0500003 0)
(0.0377037 0.034283 0)
(0.0374348 0.0193504 0)
(0.0365776 0.00479383 0)
(0.0351069 -0.00983967 0)
(0.0328798 -0.0249171 0)
(0.0299524 -0.0407513 0)
(0.0258946 -0.0574259 0)
(0.0212884 -0.0755041 0)
(0.013329 -0.0970998 0)
(0.0110006 -0.12795 0)
(-0.00649139 -0.174836 0)
(0.00568332 -0.240191 0)
(0.00825155 0.0960911 0)
(0.020999 0.12285 0)
(0.0304434 0.123329 0)
(0.037989 0.114135 0)
(0.0440063 0.09896 0)
(0.0483183 0.0820901 0)
(0.0513419 0.0652974 0)
(0.0532621 0.0493015 0)
(0.0541926 0.0342701 0)
(0.0542087 0.0200227 0)
(0.0532832 0.00622307 0)
(0.0514077 -0.00755313 0)
(0.0483433 -0.0216414 0)
(0.0442658 -0.0363969 0)
(0.0384372 -0.0519342 0)
(0.0319966 -0.0688447 0)
(0.0215089 -0.0890035 0)
(0.0174293 -0.119644 0)
(-0.00439614 -0.168974 0)
(0.0099778 -0.240924 0)
(0.00999839 0.079326 0)
(0.0253239 0.109186 0)
(0.0372466 0.112542 0)
(0.0471844 0.105494 0)
(0.0554718 0.0925419 0)
(0.0618242 0.0774576 0)
(0.0664959 0.0621417 0)
(0.0696832 0.0474242 0)
(0.0714762 0.0335551 0)
(0.0719673 0.0204315 0)
(0.0710871 0.00781094 0)
(0.0688773 -0.00469194 0)
(0.064951 -0.0173319 0)
(0.05973 -0.0305391 0)
(0.0519891 -0.0444688 0)
(0.0437111 -0.0599135 0)
(0.0303436 -0.0784905 0)
(0.0245215 -0.109107 0)
(-0.0019569 -0.16136 0)
(0.0150761 -0.240459 0)
(0.0101662 0.0599113 0)
(0.0275385 0.095402 0)
(0.0416948 0.1017 0)
(0.054276 0.0963571 0)
(0.0653876 0.0852899 0)
(0.0744046 0.0719818 0)
(0.0812602 0.0582573 0)
(0.0861363 0.0450069 0)
(0.0891194 0.0325459 0)
(0.090353 0.0208215 0)
(0.0896953 0.0096992 0)
(0.0873316 -0.00121215 0)
(0.0826121 -0.0119896 0)
(0.0763933 -0.0232094 0)
(0.0667221 -0.0350368 0)
(0.0567768 -0.0486967 0)
(0.040329 -0.0654254 0)
(0.0329979 -0.0963878 0)
(0.00128219 -0.151716 0)
(0.021813 -0.237734 0)
(0.00881427 0.0405153 0)
(0.0268417 0.0749757 0)
(0.0434218 0.0836691 0)
(0.0590052 0.0809076 0)
(0.0732614 0.0725662 0)
(0.0853915 0.0619933 0)
(0.0949023 0.0507718 0)
(0.10187 0.0398176 0)
(0.10633 0.029561 0)
(0.108585 0.0199698 0)
(0.108304 0.0110131 0)
(0.106115 0.00230193 0)
(0.100886 -0.00613795 0)
(0.0941999 -0.0149002 0)
(0.0830196 -0.0240239 0)
(0.0721212 -0.0354869 0)
(0.0528603 -0.0497677 0)
(0.0446049 -0.0813309 0)
(0.00653283 -0.139838 0)
(0.0309125 -0.229616 0)
(-0.0017841 0.0251313 0)
(0.0184417 0.060659 0)
(0.0381226 0.0685695 0)
(0.0578018 0.0667867 0)
(0.0761094 0.0603359 0)
(0.0918775 0.0521336 0)
(0.104544 0.0435587 0)
(0.114204 0.0350125 0)
(0.120725 0.0270074 0)
(0.12471 0.0196119 0)
(0.12555 0.0128945 0)
(0.124468 0.00653996 0)
(0.119805 0.000630681 0)
(0.114209 -0.00561822 0)
(0.103106 -0.0118812 0)
(0.093105 -0.0207198 0)
(0.0723861 -0.0321965 0)
(0.0642609 -0.0638487 0)
(0.0194701 -0.122874 0)
(0.0464393 -0.206415 0)
(-0.014725 0.0297556 0)
(-0.00128265 0.0286912 0)
(0.0264089 0.0340708 0)
(0.0522868 0.0355828 0)
(0.0755886 0.0335863 0)
(0.0959037 0.029552 0)
(0.112736 0.0249744 0)
(0.12629 0.0205356 0)
(0.136187 0.0164136 0)
(0.14334 0.0125622 0)
(0.147075 0.00919051 0)
(0.148843 0.00582586 0)
(0.147039 0.00301702 0)
(0.144081 -0.000676527 0)
(0.136049 -0.00375408 0)
(0.129368 -0.00998774 0)
(0.111603 -0.0188775 0)
(0.105219 -0.0465711 0)
(0.0587903 -0.0938236 0)
(0.078095 -0.157109 0)
(0.0395676 0.0382469 0)
(0.0458017 0.0274799 0)
(0.0702388 0.0248036 0)
(0.100793 0.0250637 0)
(0.127598 0.024176 0)
(0.152402 0.0221795 0)
(0.174254 0.0196224 0)
(0.193628 0.0172882 0)
(0.209369 0.0149472 0)
(0.222852 0.0130413 0)
(0.232895 0.0110768 0)
(0.241249 0.00960145 0)
(0.24643 0.00785034 0)
(0.25026 0.006599 0)
(0.250927 0.00463462 0)
(0.248454 0.0019757 0)
(0.239312 0.00168818 0)
(0.223886 -0.0103481 0)
(0.173806 -0.0133781 0)
(0.146251 -0.0648329 0)
)
;

boundaryField
{
    movingWall
    {
        type            fixedValue;
        value           uniform (1 0 0);
    }
    fixedWalls
    {
        type            noSlip;
    }
    frontAndBack
    {
        type            empty;
    }
}


// ************************************************************************* //
