/*--------------------------------*- C++ -*----------------------------------*\
| =========                 |                                                 |
| \\      /  F ield         | OpenFOAM: The Open Source CFD Toolbox           |
|  \\    /   O peration     | Version:  5.0                                   |
|   \\  /    A nd           | Web:      www.OpenFOAM.org                      |
|    \\/     M anipulation  |                                                 |
\*---------------------------------------------------------------------------*/
FoamFile
{
    version     2.0;
    format      ascii;
    class       volScalarField;
    location    "8";
    object      k;
}
// * * * * * * * * * * * * * * * * * * * * * * * * * * * * * * * * * * * * * //

dimensions      [0 2 -2 0 0 0 0];

internalField   nonuniform List<scalar> 
400
(
3.44211e-10
1.33645e-09
9.24898e-09
5.85909e-08
1.83011e-07
3.60727e-07
5.55262e-07
7.5425e-07
9.51244e-07
1.15752e-06
1.37121e-06
1.62846e-06
1.9354e-06
2.07953e-06
2.10652e-06
1.91638e-06
1.32717e-06
7.07417e-07
3.54364e-07
1.64778e-07
3.91221e-09
3.93563e-08
1.45694e-07
4.91096e-07
1.39584e-06
3.29098e-06
6.26688e-06
1.01913e-05
1.41818e-05
1.83364e-05
2.1311e-05
2.32102e-05
2.38717e-05
2.37899e-05
2.09289e-05
1.74081e-05
1.14404e-05
4.97815e-06
1.9252e-06
6.5549e-07
3.20503e-08
2.32392e-07
7.66945e-07
2.4496e-06
7.13999e-06
1.67861e-05
3.28425e-05
5.43756e-05
7.09285e-05
8.56572e-05
9.2899e-05
9.62093e-05
9.66438e-05
9.0127e-05
8.04548e-05
6.46086e-05
4.52752e-05
1.92298e-05
5.73987e-06
1.30578e-06
9.66171e-08
7.10841e-07
2.47013e-06
8.34148e-06
2.53438e-05
5.56239e-05
8.85871e-05
0.000106799
0.000124337
0.000133309
0.000139826
0.000142413
0.000143209
0.000143189
0.000139894
0.000129995
0.000109719
5.64686e-05
1.38731e-05
1.90888e-06
2.79903e-07
1.98781e-06
6.56819e-06
2.09499e-05
5.05367e-05
8.28152e-05
0.000100923
0.000111297
0.000121691
0.000126295
0.000131382
0.000136005
0.000143652
0.000149216
0.000152544
0.000153521
0.000147075
0.000104854
2.61132e-05
2.44937e-06
3.91665e-07
3.18952e-06
1.13101e-05
3.28148e-05
6.64929e-05
8.92657e-05
9.97522e-05
0.000104792
0.000105671
0.000102883
0.000102078
0.00010561
0.000116559
0.000134433
0.000151798
0.000159085
0.000161891
0.000136106
4.15344e-05
2.9054e-06
5.43949e-07
4.68284e-06
1.57431e-05
4.13799e-05
7.44754e-05
8.87739e-05
9.33099e-05
9.18859e-05
8.46341e-05
7.73045e-05
7.37057e-05
7.28772e-05
8.03728e-05
0.000101458
0.000132613
0.000155782
0.000165046
0.000150468
5.66135e-05
3.25626e-06
5.42669e-07
5.37237e-06
1.79342e-05
4.74718e-05
7.7959e-05
8.72574e-05
8.79748e-05
8.24273e-05
7.19139e-05
6.29603e-05
5.88951e-05
5.80934e-05
6.35753e-05
8.04254e-05
0.000110592
0.000144553
0.000161841
0.00015632
7.02095e-05
3.5274e-06
5.0627e-07
5.63799e-06
1.95258e-05
5.20802e-05
8.04219e-05
8.74271e-05
8.76738e-05
8.13745e-05
6.97802e-05
5.96266e-05
5.43593e-05
5.3522e-05
5.77765e-05
7.19706e-05
9.97466e-05
0.000136138
0.000151579
0.000157476
7.8523e-05
3.71731e-06
4.07623e-07
5.4573e-06
1.92177e-05
5.35003e-05
8.34175e-05
8.91251e-05
8.89908e-05
8.30032e-05
7.22145e-05
6.29348e-05
5.60302e-05
5.32969e-05
5.6627e-05
6.94071e-05
9.30147e-05
0.000132495
0.000140057
0.000154476
8.44275e-05
3.902e-06
3.2679e-07
4.97376e-06
1.807e-05
5.22135e-05
8.55769e-05
9.28895e-05
9.25963e-05
8.75412e-05
7.83874e-05
7.017e-05
6.28672e-05
5.78476e-05
6.01327e-05
7.02573e-05
9.0351e-05
0.000130757
0.00013149
0.00014802
8.6839e-05
4.05855e-06
2.66035e-07
4.12145e-06
1.5616e-05
4.8185e-05
8.42114e-05
9.53734e-05
9.73669e-05
9.46791e-05
8.70961e-05
7.88067e-05
7.19674e-05
6.68876e-05
6.89973e-05
7.77968e-05
9.2321e-05
0.000124968
0.000123016
0.000143444
8.73944e-05
4.25953e-06
2.11491e-07
3.06014e-06
1.23929e-05
4.07752e-05
7.98333e-05
9.42039e-05
9.7813e-05
9.76177e-05
9.50713e-05
8.8857e-05
8.31134e-05
7.91381e-05
8.08827e-05
8.81986e-05
0.000100198
0.000122112
0.00011807
0.000134812
8.30965e-05
4.48885e-06
1.57345e-07
2.01757e-06
8.69804e-06
2.81295e-05
7.01597e-05
8.99335e-05
9.62925e-05
9.74107e-05
9.7337e-05
9.63933e-05
9.37604e-05
9.28874e-05
9.45668e-05
0.000100986
0.000106697
0.000116458
0.000111352
0.00012869
7.61954e-05
4.7412e-06
1.00466e-07
1.1433e-06
5.39414e-06
1.75106e-05
5.03776e-05
7.90927e-05
9.04926e-05
9.47325e-05
9.65484e-05
9.8796e-05
0.000100128
0.000102649
0.00010463
0.000108326
0.000109387
0.000112747
0.000107749
0.000117472
6.57564e-05
4.80785e-06
4.77214e-08
5.69786e-07
2.88697e-06
9.59545e-06
2.7511e-05
5.55777e-05
7.56538e-05
8.52661e-05
9.03298e-05
9.60764e-05
9.91458e-05
0.00010523
0.000108032
0.000109773
0.000109201
0.000106795
9.81594e-05
0.000102437
5.45587e-05
4.64417e-06
1.62632e-08
2.78486e-07
1.42397e-06
4.64491e-06
1.23367e-05
2.91307e-05
4.48728e-05
5.94081e-05
6.80236e-05
7.71572e-05
8.36572e-05
8.86294e-05
9.41718e-05
9.41112e-05
9.16779e-05
8.34969e-05
8.00244e-05
8.23206e-05
3.98261e-05
4.0418e-06
1.21228e-08
1.56286e-07
6.86571e-07
2.09511e-06
5.09062e-06
1.18697e-05
2.04589e-05
2.82392e-05
3.50542e-05
3.86241e-05
4.32563e-05
4.50729e-05
4.70854e-05
4.78261e-05
4.97274e-05
5.40546e-05
6.5915e-05
6.24728e-05
2.69035e-05
3.34624e-06
3.61129e-08
1.92373e-07
5.71009e-07
1.28036e-06
2.79006e-06
4.58399e-06
8.55132e-06
1.06644e-05
1.49663e-05
1.69753e-05
2.12279e-05
2.37703e-05
2.95206e-05
3.36138e-05
4.22082e-05
5.19543e-05
6.38291e-05
5.07782e-05
1.49636e-05
2.18561e-06
1.43012e-08
3.25349e-08
9.7981e-08
1.66135e-07
3.49016e-07
5.06298e-07
9.08769e-07
1.081e-06
1.45915e-06
1.57868e-06
1.83837e-06
1.91018e-06
2.08359e-06
2.13049e-06
2.319e-06
2.25146e-06
2.27214e-06
2.22836e-06
1.98154e-06
1.27807e-06
)
;

boundaryField
{
    movingWall
    {
        type            kqRWallFunction;
        value           nonuniform List<scalar> 
20
(
1.43012e-08
3.25349e-08
9.7981e-08
1.66135e-07
3.49016e-07
5.06298e-07
9.08769e-07
1.081e-06
1.45915e-06
1.57868e-06
1.83837e-06
1.91018e-06
2.08359e-06
2.13049e-06
2.319e-06
2.25146e-06
2.27214e-06
2.22836e-06
1.98154e-06
1.27807e-06
)
;
    }
    fixedWalls
    {
        type            kqRWallFunction;
        value           nonuniform List<scalar> 
60
(
3.44211e-10
3.91221e-09
3.20503e-08
9.66171e-08
2.79903e-07
3.91665e-07
5.43949e-07
5.42669e-07
5.0627e-07
4.07623e-07
3.2679e-07
2.66035e-07
2.11491e-07
1.57345e-07
1.00466e-07
4.77214e-08
1.62632e-08
1.21228e-08
3.61129e-08
1.43012e-08
1.64778e-07
6.5549e-07
1.30578e-06
1.90888e-06
2.44937e-06
2.9054e-06
3.25626e-06
3.5274e-06
3.71731e-06
3.902e-06
4.05855e-06
4.25953e-06
4.48885e-06
4.7412e-06
4.80785e-06
4.64417e-06
4.0418e-06
3.34624e-06
2.18561e-06
1.27807e-06
3.44211e-10
1.33645e-09
9.24898e-09
5.85909e-08
1.83011e-07
3.60727e-07
5.55262e-07
7.5425e-07
9.51244e-07
1.15752e-06
1.37121e-06
1.62846e-06
1.9354e-06
2.07953e-06
2.10652e-06
1.91638e-06
1.32717e-06
7.07417e-07
3.54364e-07
1.64778e-07
)
;
    }
    frontAndBack
    {
        type            empty;
    }
}


// ************************************************************************* //
