/*--------------------------------*- C++ -*----------------------------------*\
| =========                 |                                                 |
| \\      /  F ield         | OpenFOAM: The Open Source CFD Toolbox           |
|  \\    /   O peration     | Version:  5.0                                   |
|   \\  /    A nd           | Web:      www.OpenFOAM.org                      |
|    \\/     M anipulation  |                                                 |
\*---------------------------------------------------------------------------*/
FoamFile
{
    version     2.0;
    format      ascii;
    class       volScalarField;
    location    "8";
    object      nut;
}
// * * * * * * * * * * * * * * * * * * * * * * * * * * * * * * * * * * * * * //

dimensions      [0 2 -1 0 0 0 0];

internalField   nonuniform List<scalar> 
400
(
2.68915e-12
1.0441e-11
7.22577e-11
4.57741e-10
1.42978e-09
2.81818e-09
4.33798e-09
5.89258e-09
7.43159e-09
9.04312e-09
1.07126e-08
1.27224e-08
1.51203e-08
1.62463e-08
1.64572e-08
1.49718e-08
1.03685e-08
5.5267e-09
2.76847e-09
1.28733e-09
3.05641e-11
7.12674e-10
1.86363e-09
5.80114e-09
1.76357e-08
4.91962e-08
1.09793e-07
2.17022e-07
3.42202e-07
5.0525e-07
6.25014e-07
6.99222e-07
6.95353e-07
6.51382e-07
5.27502e-07
3.90072e-07
2.17151e-07
7.54467e-08
2.10494e-08
5.12102e-09
2.50393e-10
4.39018e-09
1.30742e-08
4.39748e-08
1.68465e-07
5.01072e-07
1.21425e-06
2.30483e-06
3.27974e-06
4.14294e-06
4.57182e-06
4.74463e-06
4.56843e-06
4.00729e-06
3.19312e-06
2.16464e-06
1.18654e-06
3.61408e-07
6.85465e-08
1.02014e-08
7.54821e-10
1.47606e-08
5.3387e-08
2.24313e-07
9.75845e-07
2.67866e-06
5.27561e-06
7.1891e-06
9.45932e-06
1.08115e-05
1.17945e-05
1.21511e-05
1.19026e-05
1.08917e-05
9.31326e-06
6.93175e-06
4.25387e-06
1.42023e-06
1.90826e-07
1.49131e-08
2.18674e-09
4.65066e-08
1.78204e-07
8.0402e-07
2.80507e-06
5.78237e-06
8.96606e-06
1.13912e-05
1.44839e-05
1.62797e-05
1.77049e-05
1.85613e-05
1.87708e-05
1.73515e-05
1.49462e-05
1.14732e-05
7.43853e-06
3.21777e-06
4.00826e-07
1.91357e-08
3.05988e-09
8.32107e-08
3.76488e-07
1.66799e-06
4.90611e-06
8.40664e-06
1.21897e-05
1.49529e-05
1.77601e-05
1.88629e-05
1.96989e-05
2.0692e-05
2.19116e-05
2.20955e-05
2.05787e-05
1.63545e-05
1.08441e-05
5.21647e-06
7.19386e-07
2.26985e-08
4.2496e-09
1.35918e-07
6.14536e-07
2.62196e-06
6.80062e-06
1.0431e-05
1.43458e-05
1.66032e-05
1.80944e-05
1.81231e-05
1.83235e-05
1.84399e-05
1.94517e-05
2.10383e-05
2.19999e-05
1.9398e-05
1.30704e-05
6.53676e-06
1.06081e-06
2.54395e-08
4.2396e-09
1.65402e-07
8.03018e-07
3.45772e-06
8.08269e-06
1.18458e-05
1.57305e-05
1.74279e-05
1.80755e-05
1.74628e-05
1.73329e-05
1.73629e-05
1.81204e-05
1.98714e-05
2.16361e-05
2.08253e-05
1.52061e-05
7.84439e-06
1.43586e-06
2.75578e-08
3.95524e-09
1.87448e-07
9.47994e-07
4.13006e-06
9.06776e-06
1.30604e-05
1.71507e-05
1.87758e-05
1.90447e-05
1.79905e-05
1.73047e-05
1.72218e-05
1.77105e-05
1.93636e-05
2.13924e-05
2.11007e-05
1.5593e-05
8.51082e-06
1.68856e-06
2.90415e-08
3.18456e-09
1.80897e-07
1.00205e-06
4.36495e-06
9.46282e-06
1.35326e-05
1.76538e-05
1.96217e-05
1.99292e-05
1.92576e-05
1.82012e-05
1.74955e-05
1.77636e-05
1.92972e-05
2.09449e-05
2.12738e-05
1.556e-05
9.01274e-06
1.92595e-06
3.04844e-08
2.55305e-09
1.55463e-07
9.50543e-07
4.21323e-06
9.54364e-06
1.38734e-05
1.80127e-05
2.03448e-05
2.1131e-05
2.09032e-05
1.99725e-05
1.87192e-05
1.88152e-05
1.96195e-05
2.06614e-05
2.11941e-05
1.50721e-05
8.93342e-06
2.05679e-06
3.17074e-08
2.0784e-09
1.13205e-07
8.03121e-07
3.76771e-06
9.01223e-06
1.36065e-05
1.79791e-05
2.09676e-05
2.22007e-05
2.21264e-05
2.1551e-05
2.03072e-05
2.02858e-05
2.06847e-05
2.04834e-05
2.01387e-05
1.42268e-05
8.78654e-06
2.15118e-06
3.32775e-08
1.65228e-09
6.8929e-08
5.94351e-07
2.99774e-06
7.88372e-06
1.22931e-05
1.63084e-05
1.96053e-05
2.18889e-05
2.25441e-05
2.25646e-05
2.15839e-05
2.13455e-05
2.11215e-05
2.01902e-05
1.84342e-05
1.32799e-05
8.27219e-06
2.08176e-06
3.50691e-08
1.22925e-09
3.67832e-08
3.57197e-07
1.8776e-06
6.29413e-06
1.04898e-05
1.42338e-05
1.73558e-05
1.98641e-05
2.14774e-05
2.21566e-05
2.17657e-05
2.13007e-05
2.06995e-05
1.8925e-05
1.63338e-05
1.1852e-05
7.63669e-06
1.90736e-06
3.70406e-08
7.84892e-10
1.74803e-08
1.82949e-07
9.96593e-07
3.9538e-06
7.88373e-06
1.11022e-05
1.37568e-05
1.60107e-05
1.77259e-05
1.89265e-05
1.92252e-05
1.89171e-05
1.80455e-05
1.62398e-05
1.39457e-05
1.03624e-05
6.57598e-06
1.59635e-06
3.75613e-08
3.72823e-10
7.54516e-09
7.49975e-08
4.44208e-07
1.82613e-06
4.7492e-06
7.85838e-06
1.0202e-05
1.20436e-05
1.3524e-05
1.44037e-05
1.51636e-05
1.51879e-05
1.45749e-05
1.33687e-05
1.13615e-05
8.26621e-06
5.23683e-06
1.26009e-06
3.62826e-08
1.27057e-10
3.79104e-09
3.09606e-08
1.56482e-07
6.10639e-07
1.9306e-06
3.67489e-06
5.64424e-06
7.23546e-06
8.71339e-06
9.71573e-06
1.02163e-05
1.06216e-05
1.01067e-05
9.17769e-06
7.32225e-06
5.5812e-06
3.60854e-06
8.22734e-07
3.15766e-08
9.47096e-11
2.50469e-09
1.49717e-08
5.94383e-08
1.84228e-07
5.36171e-07
1.13055e-06
1.84539e-06
2.61043e-06
3.1298e-06
3.70634e-06
3.96565e-06
4.11921e-06
4.0468e-06
3.89635e-06
3.59959e-06
3.43028e-06
2.10217e-06
4.53303e-07
2.61425e-08
2.82132e-10
4.13616e-09
1.28545e-08
3.26228e-08
8.17424e-08
1.5144e-07
3.17168e-07
4.27561e-07
6.38889e-07
7.47265e-07
9.29736e-07
1.01679e-06
1.2023e-06
1.24357e-06
1.42081e-06
1.46964e-06
1.51817e-06
8.90425e-07
1.65783e-07
1.70751e-08
1.11728e-10
2.54179e-10
7.65476e-10
1.29793e-09
2.72669e-09
3.95545e-09
7.09976e-09
8.44528e-09
1.13996e-08
1.23335e-08
1.43622e-08
1.49233e-08
1.6278e-08
1.66445e-08
1.81172e-08
1.75895e-08
1.77511e-08
1.7409e-08
1.54808e-08
9.9849e-09
)
;

boundaryField
{
    movingWall
    {
        type            nutkWallFunction;
        Cmu             0.09;
        kappa           0.41;
        E               9.8;
        value           uniform 0;
    }
    fixedWalls
    {
        type            nutkWallFunction;
        Cmu             0.09;
        kappa           0.41;
        E               9.8;
        value           uniform 0;
    }
    frontAndBack
    {
        type            empty;
    }
}


// ************************************************************************* //
