/*--------------------------------*- C++ -*----------------------------------*\
| =========                 |                                                 |
| \\      /  F ield         | OpenFOAM: The Open Source CFD Toolbox           |
|  \\    /   O peration     | Version:  5.0                                   |
|   \\  /    A nd           | Web:      www.OpenFOAM.org                      |
|    \\/     M anipulation  |                                                 |
\*---------------------------------------------------------------------------*/
FoamFile
{
    version     2.0;
    format      ascii;
    class       volScalarField;
    location    "8";
    object      omega;
}
// * * * * * * * * * * * * * * * * * * * * * * * * * * * * * * * * * * * * * //

dimensions      [0 0 -1 0 0 0 0];

internalField   nonuniform List<scalar> 
400
(
128
128
128
128
128
128
128
128
128
128
128
128
128
128
128
128
128
128
128
128
128
55.2234
78.1774
84.6552
79.1484
66.8951
57.0789
46.9599
41.4429
36.2918
34.0969
33.1943
34.3303
36.5221
39.6756
44.6279
52.6842
65.9823
91.4607
128
128
52.9345
58.661
55.7046
42.3826
33.5005
27.0475
23.592
21.6263
20.6755
20.3199
20.2775
21.1547
22.4907
25.1963
29.8473
38.1573
53.2081
83.737
128
128
48.158
46.2684
37.1869
25.9712
20.7655
16.7918
14.8557
13.1443
12.3303
11.8552
11.7202
12.0317
13.1466
15.0209
18.7536
25.7928
39.7602
72.7001
128
128
42.7425
36.8577
26.0564
18.0162
14.322
11.2561
9.7704
8.4018
7.75784
7.42069
7.32733
7.65296
8.59963
10.2062
13.3809
19.772
32.586
65.1485
128
128
38.3306
30.0412
19.6732
13.5531
10.6185
8.18334
7.00816
5.9499
5.45424
5.18194
5.1039
5.31952
6.08416
7.37647
9.72727
14.9289
26.0916
57.7359
128
128
34.4535
25.6178
15.7821
10.9513
8.5106
6.50435
5.53423
4.67735
4.26553
4.02247
3.95216
4.13192
4.82251
6.0279
8.0308
12.6275
23.0188
53.3681
128
128
32.4807
22.3335
13.7292
9.64518
7.3661
5.59263
4.72963
3.97854
3.60539
3.39787
3.34583
3.50849
4.04729
5.11145
6.9412
10.6432
19.9277
48.8972
128
128
30.0776
20.597
12.61
8.86899
6.69407
5.11197
4.33402
3.66401
3.31434
3.14131
3.1078
3.26228
3.71679
4.66272
6.45183
9.72097
18.5031
46.5029
128
128
30.1679
19.1785
12.2568
8.81528
6.58595
5.04089
4.23017
3.62355
3.26804
3.07838
3.04633
3.18781
3.59675
4.44093
6.22808
9.0011
17.1397
43.8369
128
128
31.9932
19.0102
12.3928
8.9669
6.69549
5.1406
4.30288
3.70959
3.3569
3.14769
3.09028
3.19597
3.58099
4.37294
6.1695
8.72411
16.5693
42.2207
128
128
36.407
19.4442
12.7889
9.34413
7.00939
5.41557
4.5155
3.92313
3.56166
3.3394
3.2938
3.40125
3.76108
4.5071
6.20538
8.64674
16.3254
40.6263
128
128
44.3956
20.8512
13.602
10.1263
7.66317
5.99772
4.97914
4.34336
3.94147
3.68335
3.66653
3.78922
4.17577
4.96271
6.62422
8.89092
16.297
39.9165
128
128
54.8504
24.3508
14.9816
11.1468
8.57346
6.76504
5.61256
4.90014
4.48813
4.23172
4.2676
4.4396
4.87865
5.6379
7.1299
9.39522
16.8515
39.948
128
128
65.4051
29.4845
17.5705
12.7416
10.0324
8.15086
6.88624
6.03025
5.57353
5.29037
5.33927
5.53096
6.00293
6.73572
8.08469
10.3981
17.8638
41.1916
128
128
75.5168
38.4942
21.6013
15.0653
11.7025
9.62716
8.35783
7.50025
7.10417
6.88336
6.93965
7.11304
7.53167
8.16842
9.39973
11.8748
19.5609
43.2976
128
128
73.4589
45.993
29.6834
20.2029
15.0889
12.2107
10.5254
9.40142
8.85502
8.61049
8.67532
8.86607
9.31174
9.98921
11.4032
14.3382
22.8127
48.407
128
128
62.3973
45.858
35.2485
27.6323
22.1379
18.0964
15.3026
13.4285
12.3407
11.6709
11.3658
11.4307
11.8182
12.7626
15.0169
19.2156
29.7182
59.3499
128
128
46.5101
44.4209
39.2474
34.1324
30.2692
26.9615
24.9424
23.4255
22.7166
22.8322
23.3778
24.5535
27.03
29.7071
35.3516
42.0434
57.027
90.2598
128
128
128
128
128
128
128
128
128
128
128
128
128
128
128
128
128
128
128
128
128
)
;

boundaryField
{
    movingWall
    {
        Cmu             0.09;
        kappa           0.41;
        E               9.8;
        beta1           0.075;
        blended         false;
        type            omegaWallFunction;
        value           nonuniform List<scalar> 
20
(
128
128
128
128
128
128
128
128
128
128
128
128
128
128
128
128
128
128
128
128
)
;
    }
    fixedWalls
    {
        Cmu             0.09;
        kappa           0.41;
        E               9.8;
        beta1           0.075;
        blended         false;
        type            omegaWallFunction;
        value           nonuniform List<scalar> 
60
(
128
128
128
128
128
128
128
128
128
128
128
128
128
128
128
128
128
128
128
128
128
128
128
128
128
128
128
128
128
128
128
128
128
128
128
128
128
128
128
128
128
128
128
128
128
128
128
128
128
128
128
128
128
128
128
128
128
128
128
128
)
;
    }
    frontAndBack
    {
        type            empty;
    }
}


// ************************************************************************* //
