/*--------------------------------*- C++ -*----------------------------------*\
| =========                 |                                                 |
| \\      /  F ield         | OpenFOAM: The Open Source CFD Toolbox           |
|  \\    /   O peration     | Version:  5.0                                   |
|   \\  /    A nd           | Web:      www.OpenFOAM.org                      |
|    \\/     M anipulation  |                                                 |
\*---------------------------------------------------------------------------*/
FoamFile
{
    version     2.0;
    format      ascii;
    class       volScalarField;
    location    "8";
    object      p;
}
// * * * * * * * * * * * * * * * * * * * * * * * * * * * * * * * * * * * * * //

dimensions      [0 2 -2 0 0 0 0];

internalField   nonuniform List<scalar> 
400
(
4.16882e-08
-0.000109562
-0.000272044
-0.000171444
-0.0008618
-0.00259593
-0.00474406
-0.00671984
-0.00830721
-0.00937669
-0.00989348
-0.00980962
-0.00909745
-0.00761394
-0.00526205
-0.00199947
0.00206212
0.00637656
0.00952994
0.0108074
1.59971e-05
-6.84859e-05
-0.000248505
-0.000851567
-0.00210319
-0.00394796
-0.00588639
-0.00773252
-0.00919093
-0.0101779
-0.0106453
-0.0105808
-0.00995158
-0.00868067
-0.00666758
-0.00385791
-0.000253898
0.0038417
0.00742318
0.00945455
0.00034764
-5.58893e-05
-0.000850823
-0.00218249
-0.0040125
-0.00597502
-0.00788322
-0.00958766
-0.0108233
-0.0116038
-0.0119144
-0.0117602
-0.0111279
-0.0100265
-0.00841248
-0.00623006
-0.00339773
7.17538e-05
0.00361843
0.00603476
0.00025371
-0.000500946
-0.00197513
-0.00400529
-0.00619637
-0.00821898
-0.00992203
-0.0112103
-0.0121232
-0.0126706
-0.012845
-0.0126568
-0.0121034
-0.0111843
-0.00989968
-0.00823748
-0.00612467
-0.00344314
-0.000437535
0.00187329
-0.000602961
-0.00163081
-0.00362111
-0.00599962
-0.00821719
-0.0100428
-0.0114542
-0.0124827
-0.0131973
-0.0136096
-0.013725
-0.0135379
-0.0130475
-0.0122625
-0.0112064
-0.00989665
-0.00832953
-0.00633652
-0.00415005
-0.00205244
-0.00221406
-0.00334526
-0.00549234
-0.0078443
-0.00987682
-0.0114386
-0.0126118
-0.0134741
-0.0140686
-0.0144028
-0.0144866
-0.0143165
-0.0138963
-0.0132323
-0.0123522
-0.0112858
-0.0101034
-0.00862076
-0.00708665
-0.00534813
-0.00412755
-0.00522216
-0.00724963
-0.00940892
-0.0111865
-0.0125023
-0.0135065
-0.0142522
-0.0147643
-0.0150481
-0.0151143
-0.0149624
-0.014601
-0.0140383
-0.0133023
-0.0124084
-0.0114975
-0.0103566
-0.0093208
-0.0079135
-0.0058885
-0.00687104
-0.00868705
-0.0106249
-0.0121666
-0.0132929
-0.0141783
-0.0148394
-0.0152915
-0.0155396
-0.0155963
-0.0154603
-0.0151447
-0.01466
-0.0140367
-0.0132606
-0.0125456
-0.0116015
-0.0109193
-0.00979433
-0.00718973
-0.00807401
-0.00970805
-0.0114633
-0.0128354
-0.0138352
-0.014638
-0.0152379
-0.0156468
-0.0158686
-0.0159166
-0.0157941
-0.0155126
-0.0150813
-0.0145426
-0.0138285
-0.0132742
-0.0123858
-0.0120071
-0.0110612
-0.00794385
-0.00874463
-0.0102611
-0.0119105
-0.0131867
-0.0141227
-0.0148817
-0.0154454
-0.0158289
-0.0160354
-0.0160785
-0.015963
-0.0157019
-0.0152977
-0.0148201
-0.0141024
-0.0137164
-0.012723
-0.0126535
-0.0117694
-0.00811027
-0.00888191
-0.0103295
-0.0119568
-0.013224
-0.0141638
-0.0149135
-0.0154664
-0.0158417
-0.0160439
-0.0160848
-0.0159699
-0.0157136
-0.0153128
-0.0148595
-0.0140962
-0.0138414
-0.0126375
-0.0129127
-0.0119149
-0.00770411
-0.00850435
-0.00993648
-0.0116152
-0.0129435
-0.0139442
-0.0147238
-0.0152969
-0.015686
-0.0158971
-0.01594
-0.0158214
-0.0155546
-0.0151434
-0.0146407
-0.0138828
-0.0135491
-0.0122223
-0.0127311
-0.0114937
-0.00683395
-0.00771102
-0.00916739
-0.0108951
-0.0123496
-0.0134584
-0.0143103
-0.0149385
-0.0153666
-0.0156017
-0.015653
-0.0155251
-0.0152334
-0.0147797
-0.0141961
-0.0134163
-0.0128597
-0.0115049
-0.0120643
-0.010488
-0.00579759
-0.00671763
-0.0081414
-0.00980199
-0.0114074
-0.0126708
-0.0136477
-0.0143754
-0.0148754
-0.0151547
-0.0152235
-0.0150851
-0.0147546
-0.0142304
-0.0135412
-0.0126674
-0.0118244
-0.010459
-0.0109017
-0.00892436
-0.00488145
-0.00571533
-0.00696823
-0.00843973
-0.0100733
-0.0115245
-0.0127023
-0.0135934
-0.0142102
-0.0145612
-0.0146608
-0.0145109
-0.0141266
-0.0135032
-0.0126696
-0.0116213
-0.0104798
-0.00906545
-0.00929454
-0.00684528
-0.00453385
-0.00494775
-0.00570096
-0.00683016
-0.00835636
-0.00997946
-0.0114096
-0.0125359
-0.0133362
-0.0138058
-0.0139608
-0.0138053
-0.013358
-0.0126121
-0.0115956
-0.0103155
-0.00889386
-0.00736835
-0.00727548
-0.00427275
-0.00461887
-0.00447714
-0.00439482
-0.00502262
-0.00636025
-0.00807075
-0.0097533
-0.0111577
-0.0122022
-0.0128532
-0.0131188
-0.0129965
-0.0124944
-0.0116215
-0.0104043
-0.00886385
-0.00714514
-0.00543098
-0.00485326
-0.00105155
-0.00445893
-0.00381456
-0.00298752
-0.00312844
-0.00427729
-0.0060247
-0.007902
-0.00954029
-0.0108233
-0.0116739
-0.012076
-0.0120175
-0.0115183
-0.0105681
-0.00919435
-0.00742244
-0.00540789
-0.00329379
-0.0016067
0.00427516
-0.00383205
-0.00291046
-0.00172118
-0.00161635
-0.00262637
-0.00437181
-0.00636983
-0.00822175
-0.00971019
-0.0107499
-0.0112862
-0.0113219
-0.0108423
-0.00986441
-0.00839469
-0.00642956
-0.00395924
-0.000718969
0.00469532
0.0172681
-0.00524187
-0.00206051
-0.000649781
-0.000656283
-0.00159436
-0.00330876
-0.00536534
-0.00739688
-0.00905982
-0.0102399
-0.0108827
-0.0109914
-0.0105739
-0.00963931
-0.0081753
-0.00600832
-0.00230363
0.00484719
0.0189712
0.0416098
)
;

boundaryField
{
    movingWall
    {
        type            zeroGradient;
    }
    fixedWalls
    {
        type            zeroGradient;
    }
    frontAndBack
    {
        type            empty;
    }
}


// ************************************************************************* //
