/*--------------------------------*- C++ -*----------------------------------*\
| =========                 |                                                 |
| \\      /  F ield         | OpenFOAM: The Open Source CFD Toolbox           |
|  \\    /   O peration     | Version:  5.0                                   |
|   \\  /    A nd           | Web:      www.OpenFOAM.org                      |
|    \\/     M anipulation  |                                                 |
\*---------------------------------------------------------------------------*/
FoamFile
{
    version     2.0;
    format      ascii;
    class       surfaceScalarField;
    location    "8";
    object      phi;
}
// * * * * * * * * * * * * * * * * * * * * * * * * * * * * * * * * * * * * * //

dimensions      [0 3 -1 0 0 0 0];

internalField   nonuniform List<scalar> 
760
(
2.96986e-07
-2.9699e-07
1.79829e-07
1.17157e-07
-5.19715e-07
6.99544e-07
-2.0316e-06
1.51188e-06
-3.8328e-06
1.8012e-06
-5.35047e-06
1.51766e-06
-6.62481e-06
1.27434e-06
-7.5351e-06
9.10289e-07
-8.23656e-06
7.01466e-07
-8.67915e-06
4.42585e-07
-8.95641e-06
2.77259e-07
-9.01444e-06
5.80342e-08
-8.91668e-06
-9.77636e-08
-8.61096e-06
-3.05717e-07
-8.08877e-06
-5.22188e-07
-7.21317e-06
-8.75601e-07
-5.89813e-06
-1.31504e-06
-3.98734e-06
-1.91079e-06
-1.64387e-06
-2.34347e-06
-1.64387e-06
-2.71844e-07
-2.51462e-08
-1.25221e-06
1.09753e-06
-2.95868e-06
2.40601e-06
-4.64189e-06
3.1951e-06
-5.8177e-06
2.97701e-06
-6.86861e-06
2.56857e-06
-7.6331e-06
2.03883e-06
-8.28176e-06
1.55895e-06
-8.70412e-06
1.12383e-06
-8.96187e-06
7.00337e-07
-9.02984e-06
3.45228e-07
-8.94029e-06
-3.15222e-08
-8.73147e-06
-3.06577e-07
-8.38946e-06
-6.47727e-07
-7.86693e-06
-1.04472e-06
-7.13513e-06
-1.6074e-06
-6.05358e-06
-2.3966e-06
-4.48859e-06
-3.47578e-06
-2.32869e-06
-4.50337e-06
-3.97255e-06
-1.04392e-06
1.01878e-06
-2.61332e-06
2.66692e-06
-4.11965e-06
3.91234e-06
-5.20103e-06
4.27647e-06
-6.00691e-06
3.78289e-06
-6.61618e-06
3.17785e-06
-6.96338e-06
2.38603e-06
-7.16256e-06
1.75813e-06
-7.15172e-06
1.11299e-06
-7.10812e-06
6.56733e-07
-6.99633e-06
2.33444e-07
-6.89414e-06
-1.33718e-07
-6.65975e-06
-5.40966e-07
-6.36211e-06
-9.45366e-07
-5.94791e-06
-1.45892e-06
-5.44588e-06
-2.10943e-06
-4.78831e-06
-3.05417e-06
-3.81024e-06
-4.45386e-06
-2.25081e-06
-6.0628e-06
-6.22336e-06
-1.38025e-06
2.39903e-06
-2.92068e-06
4.20735e-06
-4.10345e-06
5.0951e-06
-4.82582e-06
4.99885e-06
-5.24965e-06
4.20671e-06
-5.39613e-06
3.32433e-06
-5.41597e-06
2.40586e-06
-5.40724e-06
1.7494e-06
-5.41609e-06
1.12184e-06
-5.40525e-06
6.45892e-07
-5.32855e-06
1.56742e-07
-5.19348e-06
-2.68781e-07
-4.99874e-06
-7.35714e-07
-4.72214e-06
-1.22196e-06
-4.36192e-06
-1.81914e-06
-3.9266e-06
-2.54475e-06
-3.44403e-06
-3.53673e-06
-2.8066e-06
-5.09128e-06
-1.75484e-06
-7.11457e-06
-7.9782e-06
-1.39338e-06
3.79241e-06
-2.65325e-06
5.46722e-06
-3.47496e-06
5.91681e-06
-3.92199e-06
5.44589e-06
-4.07923e-06
4.36395e-06
-4.11758e-06
3.36269e-06
-4.1659e-06
2.45417e-06
-4.20469e-06
1.7882e-06
-4.23083e-06
1.14797e-06
-4.21758e-06
6.32644e-07
-4.16064e-06
9.98081e-08
-4.03937e-06
-3.9006e-07
-3.8539e-06
-9.21175e-07
-3.5915e-06
-1.48436e-06
-3.2704e-06
-2.14024e-06
-2.88928e-06
-2.92588e-06
-2.51184e-06
-3.91417e-06
-2.12609e-06
-5.47703e-06
-1.37621e-06
-7.86445e-06
-9.35441e-06
-1.14541e-06
4.93782e-06
-2.0604e-06
6.3822e-06
-2.66212e-06
6.51854e-06
-2.95508e-06
5.73885e-06
-3.05817e-06
4.46704e-06
-3.10618e-06
3.4107e-06
-3.18062e-06
2.52861e-06
-3.23432e-06
1.8419e-06
-3.2679e-06
1.18155e-06
-3.25717e-06
6.2191e-07
-3.20738e-06
5.00202e-08
-3.10269e-06
-4.94746e-07
-2.94337e-06
-1.0805e-06
-2.71874e-06
-1.709e-06
-2.43842e-06
-2.42056e-06
-2.09651e-06
-3.26779e-06
-1.73846e-06
-4.27221e-06
-1.3889e-06
-5.8266e-06
-1.0408e-06
-8.21255e-06
-1.03952e-05
-8.26162e-07
5.76399e-06
-1.47098e-06
7.02702e-06
-1.9016e-06
6.94916e-06
-2.09204e-06
5.92928e-06
-2.18725e-06
4.56226e-06
-2.26245e-06
3.48589e-06
-2.34306e-06
2.60922e-06
-2.39502e-06
1.89387e-06
-2.42774e-06
1.21427e-06
-2.42091e-06
6.15079e-07
-2.38256e-06
1.16691e-08
-2.3028e-06
-5.74502e-07
-2.18245e-06
-1.20085e-06
-2.01233e-06
-1.87912e-06
-1.79786e-06
-2.63503e-06
-1.53944e-06
-3.52621e-06
-1.264e-06
-4.54765e-06
-1.02021e-06
-6.07039e-06
-7.75025e-07
-8.45774e-06
-1.11702e-05
-4.88123e-07
6.25211e-06
-9.10703e-07
7.4496e-06
-1.20378e-06
7.24223e-06
-1.34947e-06
6.07497e-06
-1.44307e-06
4.65587e-06
-1.52011e-06
3.56293e-06
-1.59358e-06
2.68269e-06
-1.63886e-06
1.93914e-06
-1.66661e-06
1.24201e-06
-1.66221e-06
6.10687e-07
-1.63973e-06
-1.08187e-08
-1.58544e-06
-6.28786e-07
-1.50553e-06
-1.28076e-06
-1.38952e-06
-1.99513e-06
-1.23828e-06
-2.78627e-06
-1.04939e-06
-3.7151e-06
-8.32057e-07
-4.76498e-06
-6.55751e-07
-6.24669e-06
-5.72465e-07
-8.54103e-06
-1.17427e-05
-2.15104e-07
6.46721e-06
-4.38943e-07
7.67344e-06
-6.03562e-07
7.40685e-06
-7.10184e-07
6.18159e-06
-7.8817e-07
4.73385e-06
-8.54261e-07
3.62902e-06
-9.13727e-07
2.74216e-06
-9.49962e-07
1.97538e-06
-9.73417e-07
1.26547e-06
-9.7638e-07
6.1365e-07
-9.67847e-07
-1.93518e-08
-9.42525e-07
-6.54108e-07
-9.04878e-07
-1.3184e-06
-8.476e-07
-2.05241e-06
-7.72949e-07
-2.86092e-06
-6.68049e-07
-3.82e-06
-5.54911e-07
-4.87812e-06
-4.61105e-07
-6.3405e-06
-4.16073e-07
-8.58606e-06
-1.21588e-05
7.189e-08
6.39532e-06
-2.90149e-09
7.74823e-06
-5.48857e-08
7.45884e-06
-1.06646e-07
6.23335e-06
-1.7088e-07
4.79809e-06
-2.33514e-07
3.69165e-06
-2.77925e-07
2.78657e-06
-3.06327e-07
2.00378e-06
-3.27265e-07
1.28641e-06
-3.38566e-07
6.24952e-07
-3.46459e-07
-1.14592e-08
-3.4833e-07
-6.52237e-07
-3.46853e-07
-1.31988e-06
-3.46284e-07
-2.05298e-06
-3.24763e-07
-2.88244e-06
-3.05353e-07
-3.83941e-06
-2.48916e-07
-4.93455e-06
-2.38105e-07
-6.35131e-06
-3.16242e-07
-8.50792e-06
-1.2475e-05
3.32592e-07
6.06273e-06
4.68774e-07
7.61205e-06
5.25e-07
7.40261e-06
4.56815e-07
6.30154e-06
3.977e-07
4.8572e-06
3.55932e-07
3.73342e-06
3.29125e-07
2.81338e-06
3.10128e-07
2.02278e-06
2.90802e-07
1.30573e-06
2.71309e-07
6.44444e-07
2.46461e-07
1.33893e-08
2.16145e-07
-6.21921e-07
1.78847e-07
-1.28258e-06
1.21309e-07
-1.99544e-06
9.79116e-08
-2.85904e-06
-2.28088e-08
-3.71869e-06
2.80259e-08
-4.98539e-06
-1.11361e-07
-6.21192e-06
-2.19607e-07
-8.39968e-06
-1.26946e-05
5.79717e-07
5.48301e-06
9.22172e-07
7.26959e-06
1.1046e-06
7.22018e-06
1.05594e-06
6.3502e-06
9.94312e-07
4.91883e-06
9.5561e-07
3.77212e-06
9.37432e-07
2.83156e-06
9.26325e-07
2.03389e-06
9.08343e-07
1.32372e-06
8.80391e-07
6.72397e-07
8.39167e-07
5.46131e-08
7.80762e-07
-5.63516e-07
7.03666e-07
-1.20549e-06
6.19534e-07
-1.91131e-06
4.98545e-07
-2.73805e-06
3.88953e-07
-3.6091e-06
2.62479e-07
-4.85892e-06
2.86963e-08
-5.97814e-06
-1.45589e-07
-8.22539e-06
-1.28402e-05
8.67852e-07
4.61516e-06
1.33861e-06
6.79884e-06
1.64512e-06
6.91367e-06
1.69177e-06
6.30355e-06
1.62543e-06
4.98517e-06
1.5944e-06
3.80316e-06
1.58475e-06
2.8412e-06
1.57806e-06
2.04058e-06
1.55904e-06
1.34273e-06
1.5224e-06
7.09041e-07
1.4623e-06
1.14709e-07
1.37776e-06
-4.78969e-07
1.26503e-06
-1.09276e-06
1.12946e-06
-1.77574e-06
9.43362e-07
-2.55195e-06
7.73272e-07
-3.43901e-06
5.09976e-07
-4.59562e-06
2.05823e-07
-5.67399e-06
-1.02575e-08
-8.00931e-06
-1.28505e-05
1.10132e-06
3.51384e-06
1.79429e-06
6.10587e-06
2.20144e-06
6.50652e-06
2.37668e-06
6.12831e-06
2.33569e-06
5.02616e-06
2.30835e-06
3.83049e-06
2.29982e-06
2.84973e-06
2.29504e-06
2.04536e-06
2.27534e-06
1.36243e-06
2.23152e-06
7.52861e-07
2.15696e-06
1.89266e-07
2.04819e-06
-3.70193e-07
1.89996e-06
-9.44538e-07
1.71606e-06
-1.59184e-06
1.48033e-06
-2.31621e-06
1.23117e-06
-3.18985e-06
8.55696e-07
-4.22015e-06
4.45279e-07
-5.26357e-06
1.02694e-07
-7.66673e-06
-1.27478e-05
1.33509e-06
2.17875e-06
2.1018e-06
5.33916e-06
2.63314e-06
5.97518e-06
3.01919e-06
5.74226e-06
3.14332e-06
4.90203e-06
3.15712e-06
3.81669e-06
3.15068e-06
2.85618e-06
3.14318e-06
2.05286e-06
3.11838e-06
1.38723e-06
3.06545e-06
8.05787e-07
2.97511e-06
2.79613e-07
2.84253e-06
-2.37619e-07
2.65754e-06
-7.59543e-07
2.42562e-06
-1.35993e-06
2.12546e-06
-2.01605e-06
1.77235e-06
-2.83674e-06
1.25732e-06
-3.70512e-06
6.75236e-07
-4.68148e-06
2.54241e-07
-7.24573e-06
-1.24935e-05
1.30456e-06
8.7419e-07
2.25067e-06
4.39304e-06
2.95367e-06
5.27218e-06
3.56383e-06
5.13211e-06
3.93017e-06
4.53569e-06
4.09787e-06
3.64899e-06
4.16571e-06
2.78834e-06
4.18677e-06
2.0318e-06
4.16764e-06
1.40637e-06
4.10794e-06
8.65482e-07
3.998e-06
3.89556e-07
3.8432e-06
-8.28161e-08
3.61291e-06
-5.29254e-07
3.32198e-06
-1.069e-06
2.93087e-06
-1.62494e-06
2.43458e-06
-2.34046e-06
1.7705e-06
-3.04103e-06
1.02111e-06
-3.93209e-06
4.87475e-07
-6.7121e-06
-1.20061e-05
6.98635e-07
1.75556e-07
1.88846e-06
3.20321e-06
2.96903e-06
4.19161e-06
3.86523e-06
4.2359e-06
4.54299e-06
3.85793e-06
4.98575e-06
3.20623e-06
5.24989e-06
2.5242e-06
5.3885e-06
1.89318e-06
5.43245e-06
1.36242e-06
5.41232e-06
8.85611e-07
5.30448e-06
4.97394e-07
5.10619e-06
1.15477e-07
4.82325e-06
-2.46311e-07
4.44329e-06
-6.8904e-07
3.91432e-06
-1.09597e-06
3.23224e-06
-1.65839e-06
2.3479e-06
-2.15669e-06
1.41654e-06
-3.00073e-06
8.25193e-07
-6.12075e-06
-1.11809e-05
-2.00938e-07
3.76494e-07
1.15887e-06
1.8434e-06
2.46527e-06
2.88522e-06
3.69932e-06
3.00185e-06
4.71761e-06
2.83964e-06
5.49794e-06
2.4259e-06
6.04212e-06
1.98002e-06
6.42102e-06
1.51428e-06
6.61147e-06
1.17197e-06
6.68682e-06
8.10261e-07
6.60826e-06
5.75951e-07
6.44979e-06
2.7395e-07
6.1156e-06
8.78835e-08
5.65401e-06
-2.2745e-07
4.99146e-06
-4.33417e-07
4.15664e-06
-8.23569e-07
3.03982e-06
-1.03987e-06
2.09579e-06
-2.05669e-06
1.38382e-06
-5.40878e-06
-9.79705e-06
-1.22154e-06
1.59803e-06
-2.61435e-07
8.83299e-07
1.32979e-06
1.29399e-06
2.88348e-06
1.44817e-06
4.23481e-06
1.48831e-06
5.33106e-06
1.32964e-06
6.14733e-06
1.16376e-06
6.73266e-06
9.2896e-07
7.11478e-06
7.89842e-07
7.31088e-06
6.14159e-07
7.36177e-06
5.25068e-07
7.24377e-06
3.91949e-07
7.00725e-06
3.24405e-07
6.58092e-06
1.98879e-07
6.02586e-06
1.21637e-07
5.26661e-06
-6.43142e-08
4.49895e-06
-2.72213e-07
3.83987e-06
-1.39761e-06
2.61002e-06
-4.17893e-06
-7.18703e-06
1.59803e-06
2.48133e-06
3.77532e-06
5.22349e-06
6.71181e-06
8.04145e-06
9.2052e-06
1.01342e-05
1.0924e-05
1.15382e-05
1.20632e-05
1.24552e-05
1.27796e-05
1.29785e-05
1.31001e-05
1.30358e-05
1.27636e-05
1.1366e-05
7.18703e-06
)
;

boundaryField
{
    movingWall
    {
        type            calculated;
        value           uniform 0;
    }
    fixedWalls
    {
        type            calculated;
        value           uniform 0;
    }
    frontAndBack
    {
        type            empty;
        value           nonuniform 0();
    }
}


// ************************************************************************* //
