/*--------------------------------*- C++ -*----------------------------------*\
| =========                 |                                                 |
| \\      /  F ield         | OpenFOAM: The Open Source CFD Toolbox           |
|  \\    /   O peration     | Version:  5.0                                   |
|   \\  /    A nd           | Web:      www.OpenFOAM.org                      |
|    \\/     M anipulation  |                                                 |
\*---------------------------------------------------------------------------*/
FoamFile
{
    version     2.0;
    format      ascii;
    class       volVectorField;
    location    "8";
    object      U;
}
// * * * * * * * * * * * * * * * * * * * * * * * * * * * * * * * * * * * * * //

dimensions      [0 1 -1 0 0 0 0];

internalField   nonuniform List<vector> 
400
(
(0.0026805 -0.00420357 0)
(0.00870579 -0.00204415 0)
(-0.00252444 0.00170311 0)
(-0.0150942 0.00955745 0)
(-0.0633277 0.0201343 0)
(-0.0961896 0.0150091 0)
(-0.124769 0.0145685 0)
(-0.144428 0.0111987 0)
(-0.160153 0.00963632 0)
(-0.170512 0.00701959 0)
(-0.177734 0.00552978 0)
(-0.180964 0.00345078 0)
(-0.181746 0.00160599 0)
(-0.177235 -0.00119905 0)
(-0.168401 -0.00396513 0)
(-0.152241 -0.00860135 0)
(-0.128923 -0.0137026 0)
(-0.095567 -0.0195206 0)
(-0.0572507 -0.0197741 0)
(-0.0125908 -0.00492834 0)
(-0.000560623 -0.00892601 0)
(-0.0101161 0.00710695 0)
(-0.0373916 0.0290917 0)
(-0.0778738 0.0503584 0)
(-0.109315 0.0476901 0)
(-0.130117 0.0414354 0)
(-0.147792 0.0340608 0)
(-0.161363 0.0236751 0)
(-0.171534 0.0172026 0)
(-0.177822 0.00954545 0)
(-0.181259 0.00453744 0)
(-0.181374 -0.00173598 0)
(-0.178738 -0.00649678 0)
(-0.173295 -0.0131675 0)
(-0.164061 -0.0201636 0)
(-0.150095 -0.0311001 0)
(-0.130012 -0.0448464 0)
(-0.102399 -0.0634856 0)
(-0.068343 -0.077908 0)
(-0.0204778 -0.0563168 0)
(-0.00800433 0.00852416 0)
(-0.0338276 0.0396626 0)
(-0.0683791 0.0654447 0)
(-0.0975593 0.0748083 0)
(-0.115817 0.0670263 0)
(-0.127975 0.0570221 0)
(-0.138783 0.0429091 0)
(-0.142927 0.0336092 0)
(-0.143292 0.0232658 0)
(-0.143183 0.0149864 0)
(-0.141194 0.00693609 0)
(-0.139307 -0.000180969 0)
(-0.136381 -0.00749599 0)
(-0.131285 -0.015073 0)
(-0.12468 -0.0249558 0)
(-0.115189 -0.0382033 0)
(-0.102048 -0.0582624 0)
(-0.0829907 -0.0850363 0)
(-0.0604526 -0.112926 0)
(-0.0223793 -0.112077 0)
(-0.0115241 0.0346503 0)
(-0.0443125 0.0699711 0)
(-0.0749375 0.0909197 0)
(-0.0940341 0.0917487 0)
(-0.103832 0.0791251 0)
(-0.109022 0.0646874 0)
(-0.108617 0.0485527 0)
(-0.107015 0.0351968 0)
(-0.108862 0.0224156 0)
(-0.108059 0.0128112 0)
(-0.107889 0.00348589 0)
(-0.105522 -0.00435723 0)
(-0.102396 -0.012939 0)
(-0.0976061 -0.0215564 0)
(-0.091517 -0.0322472 0)
(-0.0844249 -0.0456853 0)
(-0.0748159 -0.0658522 0)
(-0.0595741 -0.0979758 0)
(-0.0461957 -0.136145 0)
(-0.0173858 -0.145811 0)
(-0.0115896 0.0609558 0)
(-0.0451493 0.096315 0)
(-0.065688 0.108649 0)
(-0.0786957 0.103343 0)
(-0.0818012 0.0857231 0)
(-0.0821885 0.0678633 0)
(-0.0816092 0.0494966 0)
(-0.0835318 0.0358995 0)
(-0.0843224 0.022891 0)
(-0.0847951 0.0127057 0)
(-0.0840911 0.00237907 0)
(-0.0824386 -0.00698323 0)
(-0.0790672 -0.0172287 0)
(-0.0746426 -0.0278752 0)
(-0.0685913 -0.0402258 0)
(-0.0621536 -0.0548306 0)
(-0.0557181 -0.0739111 0)
(-0.0419259 -0.105436 0)
(-0.0403201 -0.153458 0)
(-0.00791142 -0.178159 0)
(-0.0100236 0.0857404 0)
(-0.0370691 0.117281 0)
(-0.0504197 0.12329 0)
(-0.0607253 0.111538 0)
(-0.059944 0.0892067 0)
(-0.060805 0.0684532 0)
(-0.0619456 0.0503812 0)
(-0.0643843 0.0366912 0)
(-0.0648202 0.0235019 0)
(-0.065691 0.0125836 0)
(-0.0647407 0.0014767 0)
(-0.0635219 -0.00895657 0)
(-0.0605322 -0.0202255 0)
(-0.056749 -0.0322708 0)
(-0.0514638 -0.046011 0)
(-0.0449855 -0.0622039 0)
(-0.040942 -0.0815789 0)
(-0.0261321 -0.112174 0)
(-0.031021 -0.159881 0)
(-0.00471614 -0.197905 0)
(-0.00761316 0.106359 0)
(-0.0268162 0.132753 0)
(-0.0365591 0.133616 0)
(-0.0435867 0.116171 0)
(-0.041538 0.0902142 0)
(-0.0439365 0.0692503 0)
(-0.0455471 0.0515927 0)
(-0.0476617 0.0374757 0)
(-0.0480504 0.0239709 0)
(-0.0488614 0.0122525 0)
(-0.0480526 0.000438225 0)
(-0.0471358 -0.0110473 0)
(-0.044867 -0.0232629 0)
(-0.041984 -0.0364187 0)
(-0.0382178 -0.051143 0)
(-0.032147 -0.0685782 0)
(-0.0314109 -0.0885333 0)
(-0.0166184 -0.119454 0)
(-0.0268889 -0.16757 0)
(0.000785485 -0.216987 0)
(-0.00405252 0.119731 0)
(-0.0165316 0.144337 0)
(-0.0232974 0.141788 0)
(-0.0281577 0.120172 0)
(-0.0263412 0.0929177 0)
(-0.0295361 0.0708453 0)
(-0.0308505 0.0530919 0)
(-0.0325761 0.0384037 0)
(-0.0329152 0.0245911 0)
(-0.033536 0.0122323 0)
(-0.0330285 -2.77851e-05 0)
(-0.0323833 -0.0121731 0)
(-0.0308802 -0.0250359 0)
(-0.028874 -0.0390405 0)
(-0.026926 -0.0544885 0)
(-0.0208349 -0.0727421 0)
(-0.0231834 -0.0927898 0)
(-0.00750912 -0.122496 0)
(-0.0214193 -0.169161 0)
(0.00245633 -0.228223 0)
(-0.00113748 0.128338 0)
(-0.00816883 0.151419 0)
(-0.0116495 0.14635 0)
(-0.0148367 0.122526 0)
(-0.0134185 0.0932928 0)
(-0.0166846 0.0716323 0)
(-0.0174977 0.0542041 0)
(-0.0188213 0.0391671 0)
(-0.0191275 0.0251094 0)
(-0.0196124 0.0122325 0)
(-0.0194336 -0.000382499 0)
(-0.0191286 -0.0129541 0)
(-0.0184558 -0.0262113 0)
(-0.017196 -0.0408076 0)
(-0.0174353 -0.0569396 0)
(-0.0115599 -0.0759623 0)
(-0.0174446 -0.0971315 0)
(-0.0018818 -0.126806 0)
(-0.0194205 -0.171719 0)
(0.00606937 -0.240029 0)
(0.00250023 0.129687 0)
(8.0636e-05 0.155548 0)
(-0.000485659 0.149641 0)
(-0.00243793 0.124585 0)
(-0.00159936 0.0962626 0)
(-0.00455164 0.0737977 0)
(-0.0049731 0.0556126 0)
(-0.00595257 0.0399666 0)
(-0.00625191 0.0256164 0)
(-0.0066784 0.0124128 0)
(-0.00681873 -0.00036593 0)
(-0.00689067 -0.0131281 0)
(-0.00703887 -0.0264756 0)
(-0.00629522 -0.0411625 0)
(-0.00846308 -0.0577008 0)
(-0.00276443 -0.0764877 0)
(-0.0117031 -0.0986438 0)
(0.00441512 -0.125998 0)
(-0.0167052 -0.171195 0)
(0.00716864 -0.246218 0)
(0.00575489 0.126496 0)
(0.00698134 0.155323 0)
(0.00974209 0.149571 0)
(0.00902546 0.125361 0)
(0.00964773 0.0957142 0)
(0.0071901 0.0735808 0)
(0.00703665 0.0556959 0)
(0.0063781 0.0401529 0)
(0.00609558 0.0258947 0)
(0.00567612 0.0126774 0)
(0.00522966 -6.50685e-05 0)
(0.00478296 -0.0128134 0)
(0.00381112 -0.026144 0)
(0.00384564 -0.0406914 0)
(0.000257895 -0.0577586 0)
(0.00488955 -0.0759605 0)
(-0.00659412 -0.1004 0)
(0.00890892 -0.126044 0)
(-0.0158063 -0.170198 0)
(0.0101101 -0.252691 0)
(0.00739827 0.117429 0)
(0.0146183 0.151482 0)
(0.0199591 0.148211 0)
(0.0210437 0.127017 0)
(0.0215227 0.09877 0)
(0.0194117 0.0756775 0)
(0.0191515 0.0568375 0)
(0.0187077 0.0408218 0)
(0.0184488 0.026451 0)
(0.0180111 0.0132368 0)
(0.0172696 0.000646147 0)
(0.0164666 -0.0118998 0)
(0.0147902 -0.0249696 0)
(0.0139244 -0.039184 0)
(0.00971749 -0.0560439 0)
(0.0126069 -0.0735731 0)
(-0.000217093 -0.0982846 0)
(0.0144856 -0.121676 0)
(-0.0151049 -0.166776 0)
(0.0121941 -0.255405 0)
(0.0112253 0.106086 0)
(0.0213838 0.143278 0)
(0.0296203 0.142546 0)
(0.0326048 0.127186 0)
(0.0339206 0.0970814 0)
(0.0323586 0.0744792 0)
(0.0320535 0.0559672 0)
(0.0317663 0.0402806 0)
(0.0314857 0.0263892 0)
(0.0310035 0.0136522 0)
(0.0299187 0.00156056 0)
(0.0287817 -0.0105236 0)
(0.0263225 -0.0230872 0)
(0.0247406 -0.0370218 0)
(0.0196941 -0.0531454 0)
(0.020447 -0.0711238 0)
(0.00681106 -0.0949856 0)
(0.0186787 -0.117823 0)
(-0.014474 -0.162107 0)
(0.0158997 -0.256994 0)
(0.0128604 0.0827564 0)
(0.0283765 0.132734 0)
(0.0407639 0.135914 0)
(0.0446987 0.126599 0)
(0.0476088 0.101404 0)
(0.0467838 0.0765398 0)
(0.0463222 0.0570599 0)
(0.046122 0.0410865 0)
(0.0458236 0.0272901 0)
(0.0453494 0.0148121 0)
(0.0439218 0.00313155 0)
(0.042573 -0.00846704 0)
(0.0392974 -0.0204224 0)
(0.037176 -0.033784 0)
(0.0311699 -0.0489079 0)
(0.0300001 -0.0665114 0)
(0.0159991 -0.0880289 0)
(0.024256 -0.109391 0)
(-0.0124493 -0.156686 0)
(0.0195368 -0.255407 0)
(0.0172077 0.0626669 0)
(0.0331318 0.115976 0)
(0.0483695 0.125513 0)
(0.0557888 0.11881 0)
(0.0612202 0.0999145 0)
(0.0628603 0.0757942 0)
(0.0631825 0.0558051 0)
(0.0631968 0.0398423 0)
(0.0627362 0.0266786 0)
(0.0622639 0.0150719 0)
(0.0603515 0.00439714 0)
(0.0588953 -0.00626742 0)
(0.0546979 -0.0171656 0)
(0.0521331 -0.0295882 0)
(0.0448217 -0.0433812 0)
(0.0417878 -0.0603379 0)
(0.0271027 -0.0794679 0)
(0.0297191 -0.100117 0)
(-0.0101379 -0.149166 0)
(0.0253468 -0.253802 0)
(0.0139586 0.022466 0)
(0.0371156 0.0992683 0)
(0.0538624 0.11502 0)
(0.0649387 0.112166 0)
(0.0737049 0.0982725 0)
(0.0795154 0.0777717 0)
(0.0823161 0.0580676 0)
(0.083807 0.0414801 0)
(0.0835899 0.0280629 0)
(0.0834802 0.0166911 0)
(0.0808854 0.00676744 0)
(0.0794178 -0.00295907 0)
(0.0741158 -0.0126552 0)
(0.0710018 -0.023951 0)
(0.0620518 -0.0360732 0)
(0.057015 -0.0514875 0)
(0.0408621 -0.0672989 0)
(0.0367729 -0.086007 0)
(-0.0050074 -0.140673 0)
(0.0319621 -0.250033 0)
(0.000512126 0.00926703 0)
(0.0289504 0.0707251 0)
(0.0511081 0.094275 0)
(0.0676894 0.0954792 0)
(0.0825539 0.0865081 0)
(0.0939306 0.0714829 0)
(0.101486 0.0558663 0)
(0.106641 0.04108 0)
(0.108035 0.0284544 0)
(0.109533 0.0174345 0)
(0.106821 0.00825769 0)
(0.105553 -0.000661079 0)
(0.0988706 -0.00881489 0)
(0.0947358 -0.0182762 0)
(0.0834933 -0.0276496 0)
(0.0754715 -0.0401133 0)
(0.0563751 -0.0519134 0)
(0.0441475 -0.0706692 0)
(0.00186937 -0.133512 0)
(0.0416698 -0.246288 0)
(-0.0196751 -0.00307528 0)
(0.0129514 0.0563841 0)
(0.0383219 0.0770522 0)
(0.0612158 0.0793221 0)
(0.0822073 0.0732433 0)
(0.101245 0.0617522 0)
(0.113901 0.0495413 0)
(0.125346 0.0387156 0)
(0.129479 0.0294405 0)
(0.134447 0.0206798 0)
(0.132553 0.0136265 0)
(0.132443 0.00627098 0)
(0.125134 0.000316839 0)
(0.120281 -0.00709825 0)
(0.106577 -0.0134281 0)
(0.0959459 -0.0228367 0)
(0.0728601 -0.0313926 0)
(0.0535556 -0.0523072 0)
(0.0170215 -0.126 0)
(0.0546824 -0.233844 0)
(-0.0263961 0.0223075 0)
(-0.0190357 0.0201482 0)
(0.011129 0.0392608 0)
(0.0424893 0.0428791 0)
(0.0695153 0.0424813 0)
(0.0955177 0.0373857 0)
(0.113474 0.0317891 0)
(0.129277 0.0238695 0)
(0.138121 0.0192904 0)
(0.145179 0.0131418 0)
(0.147218 0.0105059 0)
(0.147142 0.00524763 0)
(0.142811 0.00359699 0)
(0.137634 -0.00130961 0)
(0.125357 -0.00282669 0)
(0.11515 -0.00896578 0)
(0.0914065 -0.0131681 0)
(0.0787785 -0.0394784 0)
(0.0566043 -0.111675 0)
(0.0791997 -0.182992 0)
(0.0355471 0.0322218 0)
(0.0396288 0.0183941 0)
(0.0569697 0.0165844 0)
(0.0898039 0.0178288 0)
(0.116929 0.0198677 0)
(0.14641 0.0187445 0)
(0.170286 0.0176188 0)
(0.192725 0.0154556 0)
(0.210298 0.0137959 0)
(0.225135 0.0123365 0)
(0.236773 0.0108145 0)
(0.245661 0.010055 0)
(0.252832 0.00855045 0)
(0.257137 0.00832222 0)
(0.261233 0.00686208 0)
(0.260868 0.00595863 0)
(0.2556 0.00496405 0)
(0.241729 -0.00238527 0)
(0.202028 -0.0147205 0)
(0.149005 -0.0344448 0)
)
;

boundaryField
{
    movingWall
    {
        type            fixedValue;
        value           uniform (1 0 0);
    }
    fixedWalls
    {
        type            noSlip;
    }
    frontAndBack
    {
        type            empty;
    }
}


// ************************************************************************* //
