/*--------------------------------*- C++ -*----------------------------------*\
| =========                 |                                                 |
| \\      /  F ield         | OpenFOAM: The Open Source CFD Toolbox           |
|  \\    /   O peration     | Version:  5.0                                   |
|   \\  /    A nd           | Web:      www.OpenFOAM.org                      |
|    \\/     M anipulation  |                                                 |
\*---------------------------------------------------------------------------*/
FoamFile
{
    version     2.0;
    format      ascii;
    class       volScalarField;
    location    "3";
    object      k;
}
// * * * * * * * * * * * * * * * * * * * * * * * * * * * * * * * * * * * * * //

dimensions      [0 2 -2 0 0 0 0];

internalField   nonuniform List<scalar> 
400
(
2.08091e-09
1.94751e-08
1.86865e-08
1.07984e-08
2.93784e-08
1.87427e-07
8.11283e-07
1.97613e-06
3.18892e-06
4.21374e-06
5.25065e-06
6.26672e-06
7.62059e-06
9.33865e-06
1.006e-05
1.0337e-05
8.58276e-06
5.27084e-06
2.15271e-06
9.12387e-07
2.40426e-08
3.93374e-07
3.9486e-07
2.47831e-07
7.65488e-07
2.75639e-06
8.20409e-06
2.09197e-05
4.15717e-05
6.30899e-05
8.54773e-05
9.89457e-05
0.000105334
0.000106723
0.000101832
9.19812e-05
7.16432e-05
4.06629e-05
1.34984e-05
4.48015e-06
1.336e-07
1.27397e-06
1.10429e-06
1.41004e-06
4.73216e-06
1.51749e-05
4.56721e-05
0.000117478
0.000190902
0.000240847
0.00029224
0.000317619
0.000331647
0.000334637
0.000317339
0.000276946
0.000232936
0.000146921
4.38376e-05
1.0942e-05
3.45037e-07
2.2818e-06
2.42055e-06
4.84457e-06
1.58459e-05
5.08381e-05
0.000135327
0.000217459
0.000256273
0.00030161
0.000343351
0.000378296
0.000415723
0.000445437
0.000471105
0.000483133
0.000458788
0.000354487
0.000111575
1.88286e-05
6.12899e-07
3.52989e-06
4.53433e-06
1.2053e-05
3.93122e-05
0.000103156
0.000181744
0.000214214
0.000225835
0.000225224
0.000223846
0.000260839
0.000341186
0.000416399
0.000491592
0.000563157
0.000595658
0.000563227
0.000223878
2.74018e-05
9.6018e-07
6.25912e-06
9.1246e-06
2.31669e-05
6.21618e-05
0.00013588
0.000175466
0.000182349
0.000138452
0.000117611
0.000112712
0.000134516
0.000193943
0.000295756
0.000428814
0.000581245
0.000698514
0.00071703
0.000366414
3.61665e-05
1.30193e-06
9.22493e-06
1.41311e-05
3.30625e-05
7.70122e-05
0.000135946
0.000155699
0.000129899
9.08264e-05
7.91377e-05
7.72849e-05
8.70379e-05
0.000123913
0.000218944
0.000367556
0.000545938
0.000761769
0.000850922
0.000496034
4.47161e-05
1.54897e-06
1.06761e-05
1.49075e-05
3.3146e-05
7.65222e-05
0.000129801
0.000137416
0.000114054
8.45887e-05
7.54236e-05
7.30349e-05
7.25224e-05
9.46883e-05
0.000182117
0.000343262
0.000533064
0.000791833
0.000962443
0.000632642
5.36138e-05
1.64112e-06
1.2701e-05
1.45729e-05
3.08007e-05
7.03643e-05
0.00011912
0.000129347
0.000115074
9.13299e-05
8.41904e-05
8.09498e-05
6.97619e-05
8.52795e-05
0.000169883
0.000338732
0.000540918
0.000820967
0.00105938
0.000755451
6.22355e-05
1.45966e-06
1.85617e-05
1.51864e-05
2.31748e-05
5.4384e-05
0.00010317
0.000120225
0.000114796
0.000102768
9.46869e-05
8.14475e-05
7.11112e-05
8.85793e-05
0.000184025
0.000366222
0.000569458
0.000849684
0.00114024
0.000874269
7.12954e-05
1.50201e-06
2.77142e-05
1.99298e-05
2.04676e-05
3.28879e-05
6.53453e-05
9.72831e-05
0.00010491
9.92841e-05
9.08508e-05
7.23207e-05
7.13707e-05
0.000100426
0.000231347
0.000412852
0.000609212
0.000879933
0.00121059
0.000982832
8.04089e-05
1.49966e-06
2.98233e-05
3.50247e-05
2.36356e-05
2.79305e-05
3.84147e-05
5.78025e-05
7.10247e-05
7.21477e-05
6.74802e-05
6.40706e-05
7.41243e-05
0.000134813
0.000308236
0.000464278
0.00064178
0.000893097
0.00126557
0.00107276
9.01364e-05
1.42442e-06
2.87023e-05
6.14734e-05
4.07952e-05
3.3102e-05
3.68996e-05
4.45502e-05
5.3088e-05
5.84328e-05
6.16164e-05
7.03383e-05
0.000106053
0.00022431
0.000388448
0.000503017
0.000657678
0.000894926
0.00130004
0.00113499
0.000100868
1.23235e-06
2.53418e-05
8.00171e-05
8.47736e-05
6.46092e-05
5.41569e-05
5.54946e-05
6.07652e-05
6.89873e-05
8.25049e-05
0.000116294
0.000208673
0.000334888
0.000440007
0.0005215
0.000660572
0.000870455
0.00131311
0.00115871
0.00011358
1.00083e-06
2.09282e-05
8.43464e-05
0.000125821
0.000136523
0.000128918
0.000122967
0.000127841
0.000145241
0.000185074
0.000250351
0.000324755
0.000397917
0.000464914
0.000526927
0.000645713
0.000837771
0.00131343
0.00115814
0.000129912
9.48349e-07
2.07828e-05
8.76865e-05
0.00015479
0.000199963
0.000228824
0.000248639
0.0002673
0.000288728
0.000316566
0.000349749
0.000386828
0.000430373
0.000481468
0.000535785
0.000640329
0.000823884
0.00129988
0.00105408
0.000146567
1.09389e-06
2.2475e-05
9.4644e-05
0.000176957
0.000241619
0.000291025
0.000326644
0.000352319
0.000373245
0.000395909
0.000420767
0.00045364
0.000495592
0.000553009
0.000618889
0.000720806
0.000897612
0.00130305
0.000990688
0.000154515
2.27933e-06
3.14773e-05
0.000120764
0.000226297
0.000315154
0.000389782
0.000445507
0.00049647
0.000535195
0.000579087
0.000623184
0.000689278
0.000762972
0.000871667
0.000982433
0.00112603
0.00132974
0.0014829
0.000870571
0.000156732
7.51847e-06
7.06463e-05
0.000239398
0.000441589
0.000613878
0.000797155
0.000927234
0.00109491
0.00121224
0.00138269
0.00151642
0.00171616
0.00188201
0.00212612
0.0023001
0.00256284
0.00245337
0.00187382
0.000649865
0.000149407
3.78963e-06
1.26571e-05
3.73217e-05
7.88262e-05
0.000115358
0.000151609
0.000179638
0.000203628
0.0002268
0.000241684
0.000263478
0.000274496
0.000297607
0.000308714
0.000333976
0.000332083
0.000315265
0.000278415
0.000226389
0.000122808
)
;

boundaryField
{
    movingWall
    {
        type            kqRWallFunction;
        value           nonuniform List<scalar> 
20
(
3.78963e-06
1.26571e-05
3.73217e-05
7.88262e-05
0.000115358
0.000151609
0.000179638
0.000203628
0.0002268
0.000241684
0.000263478
0.000274496
0.000297607
0.000308714
0.000333976
0.000332083
0.000315265
0.000278415
0.000226389
0.000122808
)
;
    }
    fixedWalls
    {
        type            kqRWallFunction;
        value           nonuniform List<scalar> 
60
(
2.08091e-09
2.40426e-08
1.336e-07
3.45037e-07
6.12899e-07
9.6018e-07
1.30193e-06
1.54897e-06
1.64112e-06
1.45966e-06
1.50201e-06
1.49966e-06
1.42442e-06
1.23235e-06
1.00083e-06
9.48349e-07
1.09389e-06
2.27933e-06
7.51847e-06
3.78963e-06
9.12387e-07
4.48015e-06
1.0942e-05
1.88286e-05
2.74018e-05
3.61665e-05
4.47161e-05
5.36138e-05
6.22355e-05
7.12954e-05
8.04089e-05
9.01364e-05
0.000100868
0.00011358
0.000129912
0.000146567
0.000154515
0.000156732
0.000149407
0.000122808
2.08091e-09
1.94751e-08
1.86865e-08
1.07984e-08
2.93784e-08
1.87427e-07
8.11283e-07
1.97613e-06
3.18892e-06
4.21374e-06
5.25065e-06
6.26672e-06
7.62059e-06
9.33865e-06
1.006e-05
1.0337e-05
8.58276e-06
5.27084e-06
2.15271e-06
9.12387e-07
)
;
    }
    frontAndBack
    {
        type            empty;
    }
}


// ************************************************************************* //
