/*--------------------------------*- C++ -*----------------------------------*\
| =========                 |                                                 |
| \\      /  F ield         | OpenFOAM: The Open Source CFD Toolbox           |
|  \\    /   O peration     | Version:  5.0                                   |
|   \\  /    A nd           | Web:      www.OpenFOAM.org                      |
|    \\/     M anipulation  |                                                 |
\*---------------------------------------------------------------------------*/
FoamFile
{
    version     2.0;
    format      ascii;
    class       volScalarField;
    location    "3";
    object      nut;
}
// * * * * * * * * * * * * * * * * * * * * * * * * * * * * * * * * * * * * * //

dimensions      [0 2 -1 0 0 0 0];

internalField   nonuniform List<scalar> 
400
(
1.62571e-11
1.5215e-10
1.45989e-10
8.43622e-11
2.29519e-10
1.46427e-09
6.33814e-09
1.54385e-08
2.49135e-08
3.29198e-08
4.10207e-08
4.89587e-08
5.95358e-08
7.29582e-08
7.85939e-08
8.07577e-08
6.70528e-08
4.11785e-08
1.6818e-08
7.12802e-09
1.87833e-10
1.26242e-08
1.49679e-08
6.50059e-09
1.20633e-08
3.60415e-08
1.05746e-07
3.2817e-07
8.5278e-07
1.53567e-06
2.50802e-06
3.16308e-06
3.46035e-06
3.2931e-06
2.90696e-06
2.34559e-06
1.54003e-06
6.91112e-07
1.61313e-07
3.50011e-08
1.04375e-09
5.44925e-08
4.99731e-08
3.6097e-08
9.42116e-08
2.95572e-07
1.11114e-06
4.25541e-06
8.72092e-06
1.24937e-05
1.60206e-05
1.75703e-05
1.76219e-05
1.6476e-05
1.39076e-05
1.02522e-05
6.72942e-06
3.02453e-06
5.63736e-07
8.54843e-08
2.6956e-09
9.58965e-08
9.71546e-08
1.29918e-07
3.96049e-07
1.436e-06
6.00747e-06
1.32109e-05
1.82483e-05
2.30737e-05
2.68571e-05
2.95839e-05
3.15015e-05
3.22318e-05
3.06372e-05
2.6106e-05
1.84926e-05
9.39894e-06
1.63808e-06
1.47098e-07
4.78827e-09
1.42158e-07
1.66997e-07
3.62613e-07
1.21614e-06
4.26593e-06
1.19061e-05
1.76403e-05
2.05222e-05
2.1192e-05
2.11544e-05
2.3886e-05
3.08802e-05
3.70962e-05
4.10639e-05
3.90164e-05
2.97027e-05
1.75821e-05
3.6465e-06
2.14077e-07
7.50141e-09
2.48848e-07
3.44984e-07
7.87218e-07
2.33232e-06
7.52114e-06
1.45302e-05
1.79175e-05
1.45042e-05
1.25239e-05
1.17058e-05
1.32025e-05
1.87444e-05
2.85596e-05
4.10906e-05
4.8453e-05
4.18126e-05
2.60833e-05
6.58232e-06
2.82551e-07
1.01714e-08
3.69209e-07
5.68953e-07
1.2488e-06
3.39792e-06
9.40175e-06
1.50256e-05
1.42945e-05
1.04751e-05
9.22588e-06
8.7038e-06
8.95825e-06
1.22398e-05
2.16372e-05
3.73807e-05
5.05685e-05
5.0579e-05
3.35837e-05
9.48221e-06
3.49345e-07
1.21013e-08
4.37423e-07
6.50482e-07
1.36438e-06
3.72032e-06
9.61214e-06
1.39774e-05
1.31956e-05
1.02217e-05
9.18644e-06
8.59219e-06
7.68432e-06
9.31078e-06
1.78363e-05
3.58111e-05
5.28438e-05
5.75096e-05
4.08256e-05
1.27063e-05
4.18858e-07
1.28212e-08
5.41314e-07
6.9005e-07
1.36333e-06
3.55924e-06
8.6317e-06
1.29571e-05
1.32425e-05
1.10447e-05
1.02727e-05
9.50832e-06
7.31813e-06
8.02961e-06
1.60294e-05
3.56565e-05
5.55123e-05
6.28287e-05
4.66272e-05
1.55667e-05
4.86215e-07
1.14036e-08
7.88786e-07
8.07519e-07
1.07388e-06
2.75899e-06
6.93934e-06
1.12357e-05
1.26123e-05
1.2036e-05
1.10422e-05
8.99276e-06
6.88467e-06
7.89856e-06
1.70585e-05
3.86597e-05
5.97293e-05
6.82039e-05
5.19642e-05
1.83046e-05
5.56995e-07
1.17344e-08
1.09705e-06
1.22935e-06
1.03697e-06
1.69794e-06
3.81041e-06
7.56105e-06
9.93096e-06
1.02329e-05
9.14021e-06
6.78104e-06
6.14721e-06
8.64603e-06
2.13254e-05
4.48374e-05
6.5424e-05
7.27821e-05
5.61549e-05
2.07534e-05
6.28195e-07
1.17161e-08
1.01258e-06
2.40969e-06
1.43265e-06
1.5098e-06
2.19085e-06
3.70995e-06
5.19346e-06
5.72337e-06
5.43812e-06
5.18322e-06
6.04959e-06
1.14421e-05
3.03353e-05
5.31724e-05
7.16928e-05
7.64466e-05
5.98416e-05
2.28256e-05
7.0419e-07
1.11283e-08
8.36251e-07
4.26137e-06
2.95295e-06
2.09017e-06
2.18928e-06
2.77156e-06
3.53442e-06
4.15108e-06
4.61287e-06
5.46695e-06
8.69005e-06
2.09774e-05
4.30125e-05
6.20115e-05
7.73791e-05
7.94963e-05
6.25093e-05
2.46688e-05
7.88034e-07
9.62776e-09
6.91021e-07
5.4271e-06
7.269e-06
5.21371e-06
3.83101e-06
3.71836e-06
4.18292e-06
4.99304e-06
6.34938e-06
9.66974e-06
1.98213e-05
3.71003e-05
5.57482e-05
6.99568e-05
8.25216e-05
8.04298e-05
6.43699e-05
2.59457e-05
8.8734e-07
7.81899e-09
5.74169e-07
5.51554e-06
1.1889e-05
1.34123e-05
1.20474e-05
1.06643e-05
1.09348e-05
1.27239e-05
1.73318e-05
2.63921e-05
3.87596e-05
5.30023e-05
6.65858e-05
7.55656e-05
8.35161e-05
7.8849e-05
6.50923e-05
2.63347e-05
1.01493e-06
7.40898e-09
6.04157e-07
5.79735e-06
1.51836e-05
2.25394e-05
2.64687e-05
2.85048e-05
3.0861e-05
3.42589e-05
3.98331e-05
4.74266e-05
5.60099e-05
6.50142e-05
7.29857e-05
7.87245e-05
8.24681e-05
7.69543e-05
6.45177e-05
2.38457e-05
1.14505e-06
8.54605e-09
7.55595e-07
6.59027e-06
1.82136e-05
2.92428e-05
3.74488e-05
4.30258e-05
4.71163e-05
5.08126e-05
5.49908e-05
5.94484e-05
6.43839e-05
6.96537e-05
7.46581e-05
7.71584e-05
7.7367e-05
7.17677e-05
5.92265e-05
2.10385e-05
1.20715e-06
1.78073e-08
1.32811e-06
9.3265e-06
2.25934e-05
3.52428e-05
4.48057e-05
5.10885e-05
5.5917e-05
5.88787e-05
6.12489e-05
6.32083e-05
6.52324e-05
6.71209e-05
6.94554e-05
7.07018e-05
7.17098e-05
6.87297e-05
5.06277e-05
1.55612e-05
1.22447e-06
5.87381e-08
2.75601e-06
1.26626e-05
2.3428e-05
3.15738e-05
3.81806e-05
4.20472e-05
4.59823e-05
4.82247e-05
5.0815e-05
5.26847e-05
5.4975e-05
5.69476e-05
5.95694e-05
6.08172e-05
6.35695e-05
5.50436e-05
3.32034e-05
7.7202e-06
1.16724e-06
2.96065e-08
9.88837e-08
2.91575e-07
6.1583e-07
9.01236e-07
1.18445e-06
1.40343e-06
1.59084e-06
1.77187e-06
1.88815e-06
2.05842e-06
2.1445e-06
2.32506e-06
2.41183e-06
2.60919e-06
2.5944e-06
2.46301e-06
2.17512e-06
1.76866e-06
9.59437e-07
)
;

boundaryField
{
    movingWall
    {
        type            nutkWallFunction;
        Cmu             0.09;
        kappa           0.41;
        E               9.8;
        value           uniform 0;
    }
    fixedWalls
    {
        type            nutkWallFunction;
        Cmu             0.09;
        kappa           0.41;
        E               9.8;
        value           uniform 0;
    }
    frontAndBack
    {
        type            empty;
    }
}


// ************************************************************************* //
