/*--------------------------------*- C++ -*----------------------------------*\
| =========                 |                                                 |
| \\      /  F ield         | OpenFOAM: The Open Source CFD Toolbox           |
|  \\    /   O peration     | Version:  5.0                                   |
|   \\  /    A nd           | Web:      www.OpenFOAM.org                      |
|    \\/     M anipulation  |                                                 |
\*---------------------------------------------------------------------------*/
FoamFile
{
    version     2.0;
    format      ascii;
    class       volScalarField;
    location    "3";
    object      omega;
}
// * * * * * * * * * * * * * * * * * * * * * * * * * * * * * * * * * * * * * //

dimensions      [0 0 -1 0 0 0 0];

internalField   nonuniform List<scalar> 
400
(
128
128
128
128
128
128
128
128
128
128
128
128
128
128
128
128
128
128
128
128
128
31.1603
26.3805
38.1244
63.4561
76.4783
77.5827
63.7464
48.7484
41.0829
34.0816
31.2814
30.4402
32.4079
35.0305
39.2145
46.5207
58.837
83.6785
128
128
23.3789
22.0976
39.0626
50.2291
51.3406
41.1038
27.6067
21.8901
19.2775
18.2415
18.077
18.8202
20.3106
22.8176
27.0132
34.6146
48.5765
77.7627
128
128
23.7944
24.9144
37.2893
40.01
35.4027
22.5265
16.4606
14.0436
13.0716
12.7844
12.7872
13.1969
13.8198
15.3769
18.5066
24.8093
37.7157
68.1136
128
128
24.8308
27.1522
33.2394
32.3253
24.1813
15.2648
12.1435
11.0044
10.6278
10.5815
10.9201
11.0487
11.2249
11.9714
14.4339
20.054
32.0342
61.3953
128
128
25.1523
26.4493
29.4288
26.6524
18.0664
12.0759
10.1772
9.54567
9.39094
9.62872
10.1887
10.3467
10.3557
10.4358
11.9961
16.7058
27.49
55.6664
128
128
24.9856
24.837
26.4754
22.6646
14.4597
10.3623
9.08729
8.67066
8.5778
8.87944
9.71596
10.1238
10.1189
9.83278
10.796
15.061
25.3374
52.3121
128
128
24.4068
22.9177
24.2939
20.5687
13.5039
9.83128
8.64336
8.27543
8.21032
8.50015
9.43771
10.1698
10.2105
9.58534
10.0875
13.7687
23.5745
49.7897
128
128
23.4632
21.1186
22.5923
19.7695
13.8002
9.98271
8.68975
8.26912
8.19556
8.51358
9.53275
10.6206
10.5983
9.49986
9.74411
13.0668
22.7202
48.53
128
128
23.532
18.8062
21.5804
19.7115
14.8674
10.7002
9.10193
8.53838
8.575
9.05701
10.3289
11.2146
10.7879
9.47295
9.53397
12.458
21.9428
47.7622
128
128
25.2625
16.2116
19.7379
19.3693
17.1492
12.8663
10.5639
9.70243
9.93968
10.6651
11.6103
11.6153
10.8484
9.20776
9.31174
12.09
21.5581
47.3577
128
128
29.4528
14.5349
16.4978
18.4995
17.5341
15.5804
13.6758
12.6058
12.4087
12.3612
12.2528
11.7822
10.161
8.73157
8.95181
11.6826
21.1487
46.9979
128
128
34.3226
14.4257
13.8151
15.837
16.8547
16.0741
15.0203
14.0765
13.3575
12.8661
12.2039
10.6929
9.03105
8.11168
8.49942
11.2575
20.7975
46.0091
128
128
36.673
14.744
11.6623
12.3922
14.1364
14.9245
14.527
13.8167
12.9942
12.0266
10.5277
9.02656
7.89274
7.4546
8.00484
10.8225
20.3994
44.6588
128
128
36.4495
15.2925
10.583
10.179
10.7009
11.5307
11.6912
11.4148
10.6783
9.48585
8.3787
7.50754
6.98219
6.97311
7.73159
10.625
20.1779
43.9777
128
128
34.3997
15.1253
10.1946
8.8717
8.64508
8.72271
8.66139
8.42781
7.94731
7.37453
6.90643
6.61968
6.59675
6.80583
7.76457
10.7061
20.1477
44.2041
128
128
29.7448
14.3612
9.71563
8.26252
7.77127
7.59181
7.47764
7.34551
7.19954
7.07785
7.04586
7.11509
7.40721
8.02102
9.3167
12.5072
22.0011
47.0892
128
128
23.7008
12.9485
10.0161
8.94235
8.69938
8.7203
8.87871
9.08978
9.45465
9.85922
10.5665
11.3671
12.55
13.8954
15.7025
19.3473
29.2902
55.9448
128
128
25.6335
18.9059
18.8488
19.4427
20.8785
22.0522
23.8115
25.1373
27.2102
28.783
31.217
33.0481
35.6914
37.8199
40.3156
44.5713
56.4345
84.1772
128
128
128
128
128
128
128
128
128
128
128
128
128
128
128
128
128
128
128
128
128
)
;

boundaryField
{
    movingWall
    {
        Cmu             0.09;
        kappa           0.41;
        E               9.8;
        beta1           0.075;
        blended         false;
        type            omegaWallFunction;
        value           nonuniform List<scalar> 
20
(
128
128
128
128
128
128
128
128
128
128
128
128
128
128
128
128
128
128
128
128
)
;
    }
    fixedWalls
    {
        Cmu             0.09;
        kappa           0.41;
        E               9.8;
        beta1           0.075;
        blended         false;
        type            omegaWallFunction;
        value           nonuniform List<scalar> 
60
(
128
128
128
128
128
128
128
128
128
128
128
128
128
128
128
128
128
128
128
128
128
128
128
128
128
128
128
128
128
128
128
128
128
128
128
128
128
128
128
128
128
128
128
128
128
128
128
128
128
128
128
128
128
128
128
128
128
128
128
128
)
;
    }
    frontAndBack
    {
        type            empty;
    }
}


// ************************************************************************* //
