/*--------------------------------*- C++ -*----------------------------------*\
| =========                 |                                                 |
| \\      /  F ield         | OpenFOAM: The Open Source CFD Toolbox           |
|  \\    /   O peration     | Version:  5.0                                   |
|   \\  /    A nd           | Web:      www.OpenFOAM.org                      |
|    \\/     M anipulation  |                                                 |
\*---------------------------------------------------------------------------*/
FoamFile
{
    version     2.0;
    format      ascii;
    class       volScalarField;
    location    "3";
    object      p;
}
// * * * * * * * * * * * * * * * * * * * * * * * * * * * * * * * * * * * * * //

dimensions      [0 2 -2 0 0 0 0];

internalField   nonuniform List<scalar> 
400
(
3.39157e-08
-4.43401e-06
-1.36518e-05
-9.88661e-06
1.26478e-05
0.000100342
0.000178842
-0.000442258
-0.00151433
-0.00241717
-0.0029406
-0.00307389
-0.00280067
-0.00211159
-0.000928667
0.000774952
0.00292385
0.00529984
0.00713958
0.00771694
2.00851e-07
-8.4155e-06
-2.66054e-05
-1.50102e-05
2.81705e-05
-0.000135595
-0.000586524
-0.00141589
-0.0024133
-0.00312664
-0.00355544
-0.00360149
-0.00332883
-0.00270915
-0.00169171
-0.000223633
0.00168647
0.00391319
0.00597645
0.0070092
1.3888e-05
-8.36347e-06
-5.48842e-05
-0.000137741
-0.000366238
-0.000889662
-0.00172951
-0.00275254
-0.00370612
-0.00434709
-0.00460295
-0.00452873
-0.00414876
-0.00354175
-0.00270203
-0.00156604
-8.71086e-05
0.00175
0.00382601
0.0051417
3.96099e-05
4.65652e-06
-9.69845e-05
-0.000390726
-0.00098587
-0.00192858
-0.0030485
-0.00413794
-0.00496429
-0.00541966
-0.00547534
-0.00523663
-0.00481145
-0.00424668
-0.00355987
-0.00270599
-0.00164466
-0.00026434
0.00148489
0.00277297
2.06492e-06
-5.42042e-05
-0.000242853
-0.000755876
-0.00170726
-0.00297962
-0.00427788
-0.00533615
-0.00608469
-0.00643618
-0.00633703
-0.00594591
-0.00542193
-0.00485429
-0.00426046
-0.00359939
-0.00283399
-0.00185964
-0.000633832
0.000555564
-0.000150837
-0.00022635
-0.000518035
-0.00123663
-0.00244293
-0.00392237
-0.00533663
-0.00639385
-0.00713653
-0.00746228
-0.00727065
-0.00671286
-0.00603655
-0.00539768
-0.00483056
-0.00428415
-0.00371512
-0.00303773
-0.00223828
-0.00125285
-0.00043117
-0.000526934
-0.000883358
-0.00175955
-0.00311288
-0.00470554
-0.00622195
-0.00731422
-0.00808403
-0.00843115
-0.00819243
-0.00749022
-0.00663263
-0.00587113
-0.00527643
-0.00478668
-0.00433846
-0.00385178
-0.00336307
-0.00257527
-0.000808052
-0.000924586
-0.0012808
-0.00222397
-0.003625
-0.00524029
-0.00682211
-0.0079617
-0.00873734
-0.00908383
-0.00883262
-0.00804657
-0.00702089
-0.00617354
-0.00555868
-0.0051071
-0.00474383
-0.00436022
-0.00408002
-0.00344489
-0.00119073
-0.00133277
-0.00165421
-0.00254576
-0.00389605
-0.00546029
-0.00703761
-0.00819578
-0.00894954
-0.00925669
-0.00898474
-0.00817271
-0.00708976
-0.00622696
-0.00563806
-0.00522949
-0.00494536
-0.00459194
-0.00448295
-0.00392759
-0.0015257
-0.00166505
-0.00196323
-0.00270684
-0.00390303
-0.00531925
-0.00680363
-0.0079338
-0.0086452
-0.00889446
-0.00860687
-0.00782092
-0.0068109
-0.00601999
-0.00550633
-0.00516167
-0.00497477
-0.00459114
-0.00464263
-0.00411255
-0.00176717
-0.00188624
-0.00216905
-0.0027156
-0.0036686
-0.00483284
-0.00608335
-0.00711622
-0.00776627
-0.00797752
-0.00772189
-0.00706048
-0.00625078
-0.00562088
-0.00521659
-0.00495471
-0.00483691
-0.00439904
-0.0046414
-0.00405797
-0.00190063
-0.00200419
-0.00222672
-0.00260077
-0.00326258
-0.00411976
-0.00507076
-0.00592118
-0.00647994
-0.00668742
-0.00654436
-0.00610926
-0.0055672
-0.00513526
-0.00485016
-0.004658
-0.00458581
-0.00408047
-0.00454969
-0.00379463
-0.00196867
-0.00204165
-0.00218961
-0.00242852
-0.00283889
-0.00341337
-0.00409238
-0.00474652
-0.00523315
-0.00548025
-0.00546202
-0.00523637
-0.00493207
-0.00466963
-0.00447523
-0.00432454
-0.00427555
-0.00367607
-0.00440832
-0.00331466
-0.00200141
-0.00203276
-0.00210799
-0.00224989
-0.00249944
-0.00287811
-0.00335703
-0.00386203
-0.00429318
-0.0045482
-0.00462719
-0.00456433
-0.00442978
-0.00427727
-0.00413493
-0.00399952
-0.00394398
-0.00324673
-0.00420079
-0.00260486
-0.00201387
-0.00199977
-0.00200606
-0.0020805
-0.0022472
-0.00252233
-0.00288898
-0.00329899
-0.00367203
-0.00394211
-0.00409403
-0.0041292
-0.00407141
-0.00397066
-0.00385051
-0.00370872
-0.00361313
-0.00285067
-0.00384965
-0.0016561
-0.00201266
-0.00194081
-0.00188766
-0.00191406
-0.00203935
-0.00226959
-0.00258582
-0.00294763
-0.00329255
-0.00357247
-0.00375171
-0.00382603
-0.0038151
-0.00374302
-0.00362798
-0.00346177
-0.00329198
-0.00249115
-0.00324892
-0.00044229
-0.00201952
-0.00186481
-0.00175246
-0.00173992
-0.00184323
-0.00205841
-0.00235942
-0.00270534
-0.00304702
-0.00333021
-0.00352151
-0.00362061
-0.00364031
-0.00358499
-0.00346233
-0.00324475
-0.00295595
-0.00207755
-0.00225203
0.00130975
-0.002047
-0.00175504
-0.00160491
-0.00155915
-0.00165531
-0.00187132
-0.00217404
-0.0025166
-0.00285735
-0.00314962
-0.00336773
-0.00349579
-0.00353825
-0.00348666
-0.00333999
-0.00303758
-0.00256348
-0.00137191
-0.000319971
0.00494916
-0.00226537
-0.00170245
-0.00149214
-0.001378
-0.00145358
-0.00166095
-0.00196648
-0.00231381
-0.00266838
-0.0029777
-0.0032303
-0.00338238
-0.00345022
-0.00340032
-0.00325244
-0.00289549
-0.00215318
8.29315e-05
0.00432576
0.0146996
-0.0032602
-0.000951904
-0.000695821
-0.000740658
-0.000866464
-0.00109896
-0.00143361
-0.00183443
-0.00223931
-0.00260836
-0.00289819
-0.00310111
-0.00319017
-0.00316237
-0.00293989
-0.00243044
-0.000885534
0.00376793
0.0146153
0.0329574
)
;

boundaryField
{
    movingWall
    {
        type            zeroGradient;
    }
    fixedWalls
    {
        type            zeroGradient;
    }
    frontAndBack
    {
        type            empty;
    }
}


// ************************************************************************* //
