/*--------------------------------*- C++ -*----------------------------------*\
| =========                 |                                                 |
| \\      /  F ield         | OpenFOAM: The Open Source CFD Toolbox           |
|  \\    /   O peration     | Version:  5.0                                   |
|   \\  /    A nd           | Web:      www.OpenFOAM.org                      |
|    \\/     M anipulation  |                                                 |
\*---------------------------------------------------------------------------*/
FoamFile
{
    version     2.0;
    format      ascii;
    class       surfaceScalarField;
    location    "3";
    object      phi;
}
// * * * * * * * * * * * * * * * * * * * * * * * * * * * * * * * * * * * * * //

dimensions      [0 3 -1 0 0 0 0];

internalField   nonuniform List<scalar> 
760
(
5.38749e-08
-5.38783e-08
1.00614e-07
-4.67387e-08
9.5356e-08
5.25734e-09
-2.50038e-08
1.2036e-07
-3.7366e-07
3.48656e-07
-1.26556e-06
8.91899e-07
-2.73078e-06
1.46522e-06
-4.12903e-06
1.39825e-06
-5.06409e-06
9.35061e-07
-5.7532e-06
6.89108e-07
-6.15409e-06
4.0089e-07
-6.34094e-06
1.86846e-07
-6.35273e-06
1.17974e-08
-6.18213e-06
-1.70608e-07
-5.85629e-06
-3.25834e-07
-5.24543e-06
-6.10861e-07
-4.31886e-06
-9.26574e-07
-2.9312e-06
-1.38766e-06
-1.1849e-06
-1.7463e-06
-1.1849e-06
-4.18849e-09
-4.96899e-08
-6.40142e-08
1.30869e-08
-2.76174e-07
2.17417e-07
-8.83883e-07
7.28068e-07
-2.14916e-06
1.61394e-06
-3.73712e-06
2.47985e-06
-4.86341e-06
2.59151e-06
-5.47153e-06
2.00637e-06
-6.0399e-06
1.50344e-06
-6.38302e-06
1.03223e-06
-6.54929e-06
5.67152e-07
-6.56838e-06
2.05939e-07
-6.42772e-06
-1.28866e-07
-6.20931e-06
-3.89017e-07
-5.83278e-06
-7.02358e-07
-5.31376e-06
-1.12989e-06
-4.53448e-06
-1.70585e-06
-3.37091e-06
-2.55124e-06
-1.75704e-06
-3.36016e-06
-2.94194e-06
-1.39172e-07
8.94819e-08
-4.12561e-07
2.86476e-07
-9.84778e-07
7.89634e-07
-2.07975e-06
1.82304e-06
-3.42347e-06
2.95766e-06
-4.38391e-06
3.44029e-06
-4.93166e-06
3.13926e-06
-5.27953e-06
2.35424e-06
-5.47032e-06
1.69422e-06
-5.46936e-06
1.03128e-06
-5.33475e-06
4.32543e-07
-5.17003e-06
4.12114e-08
-4.95144e-06
-3.47452e-07
-4.71029e-06
-6.30169e-07
-4.42745e-06
-9.85195e-07
-4.08577e-06
-1.47156e-06
-3.619e-06
-2.17262e-06
-2.90646e-06
-3.26378e-06
-1.72637e-06
-4.54025e-06
-4.66831e-06
-3.09021e-07
3.98503e-07
-8.14952e-07
7.92407e-07
-1.62886e-06
1.60355e-06
-2.75809e-06
2.95227e-06
-3.66129e-06
3.86086e-06
-4.18708e-06
3.96608e-06
-4.42698e-06
3.37915e-06
-4.5318e-06
2.45906e-06
-4.55422e-06
1.71665e-06
-4.46838e-06
9.45434e-07
-4.28634e-06
2.50499e-07
-3.99696e-06
-2.48165e-07
-3.70483e-06
-6.39584e-07
-3.42403e-06
-9.10968e-07
-3.15576e-06
-1.25346e-06
-2.88492e-06
-1.7424e-06
-2.57305e-06
-2.48449e-06
-2.17141e-06
-3.66542e-06
-1.37647e-06
-5.33519e-06
-6.04479e-06
-4.36852e-07
8.35355e-07
-1.05743e-06
1.41298e-06
-1.88603e-06
2.43215e-06
-2.75018e-06
3.81641e-06
-3.28454e-06
4.39522e-06
-3.61678e-06
4.29833e-06
-3.74949e-06
3.51186e-06
-3.84446e-06
2.55404e-06
-3.89963e-06
1.77182e-06
-3.83305e-06
8.78852e-07
-3.59644e-06
1.38824e-08
-3.23232e-06
-6.12285e-07
-2.85373e-06
-1.01817e-06
-2.5216e-06
-1.2431e-06
-2.25093e-06
-1.52414e-06
-2.01679e-06
-1.97654e-06
-1.81351e-06
-2.68777e-06
-1.60892e-06
-3.87001e-06
-1.07492e-06
-5.86918e-06
-7.11971e-06
-4.77245e-07
1.3126e-06
-1.09007e-06
2.02581e-06
-1.78465e-06
3.12674e-06
-2.35192e-06
4.38368e-06
-2.69366e-06
4.73696e-06
-2.92284e-06
4.52751e-06
-3.07193e-06
3.66095e-06
-3.21783e-06
2.69993e-06
-3.29747e-06
1.85146e-06
-3.25784e-06
8.39222e-07
-3.04453e-06
-1.99431e-07
-2.65752e-06
-9.99293e-07
-2.22369e-06
-1.45199e-06
-1.84238e-06
-1.62441e-06
-1.57139e-06
-1.79512e-06
-1.37106e-06
-2.17688e-06
-1.20932e-06
-2.84951e-06
-1.05303e-06
-4.0263e-06
-8.20289e-07
-6.10192e-06
-7.94e-06
-4.24767e-07
1.73737e-06
-9.41136e-07
2.54217e-06
-1.41887e-06
3.60447e-06
-1.73753e-06
4.70233e-06
-1.95089e-06
4.95032e-06
-2.1149e-06
4.69153e-06
-2.26212e-06
3.80817e-06
-2.40107e-06
2.83889e-06
-2.46378e-06
1.91416e-06
-2.44087e-06
8.16314e-07
-2.30796e-06
-3.32338e-07
-2.00267e-06
-1.30459e-06
-1.62567e-06
-1.82899e-06
-1.27871e-06
-1.97138e-06
-1.04613e-06
-2.0277e-06
-9.00565e-07
-2.32244e-06
-8.10877e-07
-2.9392e-06
-7.35824e-07
-4.10136e-06
-6.13021e-07
-6.22472e-06
-8.55302e-06
-3.05018e-07
2.04239e-06
-6.61608e-07
2.89876e-06
-9.03467e-07
3.84633e-06
-1.03125e-06
4.83012e-06
-1.11706e-06
5.03612e-06
-1.20458e-06
4.77906e-06
-1.31799e-06
3.92157e-06
-1.39981e-06
2.92071e-06
-1.4086e-06
1.92295e-06
-1.3751e-06
7.82816e-07
-1.29568e-06
-4.11764e-07
-1.12645e-06
-1.47382e-06
-8.93382e-07
-2.06206e-06
-6.99368e-07
-2.16539e-06
-5.78516e-07
-2.14855e-06
-5.15217e-07
-2.38574e-06
-4.94631e-07
-2.95979e-06
-4.76644e-07
-4.11934e-06
-4.65951e-07
-6.23542e-06
-9.01897e-06
-1.58823e-07
2.20121e-06
-3.40928e-07
3.08087e-06
-3.60459e-07
3.86586e-06
-3.21196e-07
4.79085e-06
-2.82994e-07
4.99792e-06
-2.57108e-07
4.75317e-06
-2.96889e-07
3.96135e-06
-3.1385e-07
2.93767e-06
-2.78091e-07
1.8872e-06
-2.20909e-07
7.25633e-07
-1.61317e-07
-4.71355e-07
-1.09415e-07
-1.52572e-06
-9.4531e-08
-2.07694e-06
-1.26425e-07
-2.1335e-06
-1.54972e-07
-2.12e-06
-1.99809e-07
-2.34091e-06
-2.65089e-07
-2.89451e-06
-3.16845e-07
-4.06759e-06
-3.5229e-07
-6.19997e-06
-9.37126e-06
9.04968e-09
2.19216e-06
-4.09636e-08
3.13088e-06
1.09728e-07
3.71517e-06
3.8429e-07
4.51629e-06
5.78509e-07
4.8037e-06
7.48376e-07
4.58331e-06
8.0529e-07
3.90444e-06
8.39936e-07
2.90302e-06
8.97661e-07
1.82947e-06
9.27694e-07
6.95601e-07
8.98342e-07
-4.42004e-07
8.00059e-07
-1.42744e-06
6.10828e-07
-1.88771e-06
3.99504e-07
-1.92217e-06
2.21649e-07
-1.94215e-06
6.46294e-08
-2.18389e-06
-6.26503e-08
-2.76723e-06
-1.84432e-07
-3.94581e-06
-2.83138e-07
-6.10126e-06
-9.6544e-06
1.13893e-07
2.07827e-06
1.82717e-07
3.06206e-06
4.09385e-07
3.4885e-06
8.75317e-07
4.05036e-06
1.28466e-06
4.39436e-06
1.61646e-06
4.25151e-06
1.81786e-06
3.70304e-06
1.91801e-06
2.80287e-06
1.97092e-06
1.77656e-06
1.95954e-06
7.06978e-07
1.82494e-06
-3.07406e-07
1.54074e-06
-1.14323e-06
1.15836e-06
-1.50534e-06
8.03223e-07
-1.56703e-06
5.19774e-07
-1.6587e-06
2.85321e-07
-1.94943e-06
8.10999e-08
-2.56301e-06
-1.0183e-07
-3.76288e-06
-2.26619e-07
-5.97648e-06
-9.88102e-06
1.93417e-07
1.88485e-06
3.36523e-07
2.91895e-06
5.76116e-07
3.24891e-06
1.05978e-06
3.5667e-06
1.62275e-06
3.83139e-06
2.11019e-06
3.76407e-06
2.46305e-06
3.35018e-06
2.6508e-06
2.61512e-06
2.71744e-06
1.70992e-06
2.63495e-06
7.89474e-07
2.397e-06
-6.94556e-08
1.97976e-06
-7.25992e-07
1.49103e-06
-1.01661e-06
1.073e-06
-1.14899e-06
7.36778e-07
-1.32248e-06
4.47826e-07
-1.66048e-06
1.86648e-07
-2.30183e-06
-4.50628e-08
-3.53117e-06
-2.06142e-07
-5.8154e-06
-1.00872e-05
2.3298e-07
1.65187e-06
4.18712e-07
2.73322e-06
6.47548e-07
3.02007e-06
1.05252e-06
3.16172e-06
1.60701e-06
3.2769e-06
2.15666e-06
3.21442e-06
2.59784e-06
2.909e-06
2.85571e-06
2.35725e-06
2.92435e-06
1.64128e-06
2.8282e-06
8.85626e-07
2.55594e-06
2.02802e-07
2.1098e-06
-2.79853e-07
1.64157e-06
-5.48384e-07
1.23865e-06
-7.46069e-07
8.89447e-07
-9.73278e-07
5.70318e-07
-1.34135e-06
2.74244e-07
-2.00575e-06
-5.51073e-09
-3.25141e-06
-1.70818e-07
-5.65009e-06
-1.0258e-05
2.13771e-07
1.4381e-06
4.27825e-07
2.51917e-06
6.60426e-07
2.78747e-06
9.88092e-07
2.83406e-06
1.44104e-06
2.82396e-06
1.93764e-06
2.71782e-06
2.37946e-06
2.46718e-06
2.6919e-06
2.04481e-06
2.80677e-06
1.52641e-06
2.72513e-06
9.67265e-07
2.45607e-06
4.71858e-07
2.07964e-06
9.65769e-08
1.70087e-06
-1.69608e-07
1.34643e-06
-3.91634e-07
1.00987e-06
-6.36714e-07
6.8116e-07
-1.01265e-06
3.62812e-07
-1.68741e-06
3.93506e-08
-2.92795e-06
-1.1492e-07
-5.49582e-06
-1.03729e-05
1.72185e-07
1.26591e-06
3.9108e-07
2.30027e-06
6.35053e-07
2.5435e-06
9.32132e-07
2.53698e-06
1.30234e-06
2.45375e-06
1.70935e-06
2.31081e-06
2.08826e-06
2.08827e-06
2.36147e-06
1.7716e-06
2.49199e-06
1.39588e-06
2.45827e-06
1.00099e-06
2.28471e-06
6.45421e-07
2.03046e-06
3.50831e-07
1.74604e-06
1.14806e-07
1.44849e-06
-9.40772e-08
1.13808e-06
-3.26309e-07
8.12448e-07
-6.87014e-07
4.79907e-07
-1.35486e-06
1.40513e-07
-2.58856e-06
2.64927e-08
-5.3818e-06
-1.03464e-05
7.59472e-08
1.18997e-06
2.8411e-07
2.09211e-06
5.62776e-07
2.26483e-06
8.77936e-07
2.22182e-06
1.22193e-06
2.10976e-06
1.57287e-06
1.95986e-06
1.89295e-06
1.7682e-06
2.13334e-06
1.53121e-06
2.26826e-06
1.26096e-06
2.28694e-06
9.82309e-07
2.20435e-06
7.28009e-07
2.04639e-06
5.08795e-07
1.83814e-06
3.23059e-07
1.59522e-06
1.48842e-07
1.3216e-06
-5.26935e-08
1.01549e-06
-3.80906e-07
6.80823e-07
-1.02019e-06
3.48649e-07
-2.25638e-06
1.95768e-07
-5.22892e-06
-1.01506e-05
-3.48126e-08
1.22478e-06
1.82605e-07
1.87469e-06
4.75911e-07
1.97153e-06
8.08568e-07
1.88916e-06
1.15086e-06
1.76746e-06
1.48486e-06
1.62587e-06
1.785e-06
1.46806e-06
2.02876e-06
1.28745e-06
2.19523e-06
1.09449e-06
2.2734e-06
9.04136e-07
2.26465e-06
7.36764e-07
2.18483e-06
5.88613e-07
2.04894e-06
4.58948e-07
1.87122e-06
3.26558e-07
1.64817e-06
1.70363e-07
1.38083e-06
-1.13572e-07
1.05488e-06
-6.94236e-07
7.31284e-07
-1.93279e-06
5.05132e-07
-5.00276e-06
-9.6455e-06
-3.19568e-07
1.54435e-06
-9.59465e-08
1.65107e-06
2.71655e-07
1.60393e-06
6.84438e-07
1.47638e-06
1.09097e-06
1.36093e-06
1.47892e-06
1.23792e-06
1.82672e-06
1.12026e-06
2.12061e-06
9.93553e-07
2.33784e-06
8.77265e-07
2.48225e-06
7.59721e-07
2.55961e-06
6.59404e-07
2.58514e-06
5.63084e-07
2.55568e-06
4.88406e-07
2.47986e-06
4.02386e-07
2.3403e-06
3.09914e-07
2.14603e-06
8.07056e-08
1.83484e-06
-3.83047e-07
1.50138e-06
-1.59934e-06
1.05104e-06
-4.55242e-06
-8.59446e-06
-5.88861e-07
2.13321e-06
-1.65769e-07
1.22798e-06
4.21903e-07
1.01625e-06
9.89773e-07
9.08506e-07
1.51426e-06
8.36436e-07
2.00619e-06
7.45994e-07
2.44364e-06
6.82805e-07
2.8358e-06
6.01393e-07
3.15633e-06
5.56738e-07
3.4333e-06
4.8275e-07
3.63857e-06
4.54134e-07
3.81684e-06
3.84818e-07
3.92948e-06
3.75768e-07
4.02749e-06
3.04375e-07
4.05156e-06
2.85841e-07
4.00687e-06
1.25393e-07
3.80734e-06
-1.83516e-07
3.38154e-06
-1.17353e-06
2.2431e-06
-3.41399e-06
-6.35136e-06
2.13321e-06
3.36119e-06
4.37744e-06
5.28595e-06
6.12238e-06
6.86838e-06
7.55118e-06
8.15258e-06
8.70932e-06
9.19207e-06
9.6462e-06
1.0031e-05
1.04068e-05
1.07112e-05
1.0997e-05
1.11224e-05
1.09389e-05
9.76535e-06
6.35136e-06
)
;

boundaryField
{
    movingWall
    {
        type            calculated;
        value           uniform 0;
    }
    fixedWalls
    {
        type            calculated;
        value           uniform 0;
    }
    frontAndBack
    {
        type            empty;
        value           nonuniform 0();
    }
}


// ************************************************************************* //
