/*--------------------------------*- C++ -*----------------------------------*\
| =========                 |                                                 |
| \\      /  F ield         | OpenFOAM: The Open Source CFD Toolbox           |
|  \\    /   O peration     | Version:  5.0                                   |
|   \\  /    A nd           | Web:      www.OpenFOAM.org                      |
|    \\/     M anipulation  |                                                 |
\*---------------------------------------------------------------------------*/
FoamFile
{
    version     2.0;
    format      ascii;
    class       volVectorField;
    location    "3";
    object      U;
}
// * * * * * * * * * * * * * * * * * * * * * * * * * * * * * * * * * * * * * //

dimensions      [0 1 -1 0 0 0 0];

internalField   nonuniform List<vector> 
400
(
(0.000577576 -0.000707473 0)
(0.00159363 -0.000715582 0)
(0.00228657 -0.000291243 0)
(0.0013334 0.000345717 0)
(-0.00242257 0.000640745 0)
(-0.012968 0.00204149 0)
(-0.0336704 0.011903 0)
(-0.0756151 0.018163 0)
(-0.0960309 0.00896934 0)
(-0.110797 0.00983073 0)
(-0.120801 0.00560536 0)
(-0.125628 0.00379337 0)
(-0.127789 0.0023687 0)
(-0.126962 -0.000668613 0)
(-0.121267 -0.00189257 0)
(-0.111227 -0.00610026 0)
(-0.094672 -0.00923259 0)
(-0.0711137 -0.0134298 0)
(-0.0402178 -0.0152501 0)
(-0.0109466 -0.00393888 0)
(0.00023883 -0.0015645 0)
(-0.000392223 -0.00126005 0)
(-0.002379 0.000498193 0)
(-0.00901817 0.00487509 0)
(-0.0245548 0.0148841 0)
(-0.0599515 0.0357858 0)
(-0.0875353 0.0437112 0)
(-0.106809 0.0338138 0)
(-0.117405 0.0255718 0)
(-0.126521 0.0162129 0)
(-0.130198 0.00935117 0)
(-0.131711 0.00309524 0)
(-0.130557 -0.00213345 0)
(-0.126989 -0.00723514 0)
(-0.121854 -0.0128917 0)
(-0.111402 -0.021025 0)
(-0.0983584 -0.0311953 0)
(-0.0774686 -0.0458554 0)
(-0.0503758 -0.0567676 0)
(-0.0192904 -0.0404378 0)
(-0.000705101 -0.000362123 0)
(-0.00473904 0.00177121 0)
(-0.0116145 0.00837097 0)
(-0.0267851 0.0247121 0)
(-0.0545361 0.0478455 0)
(-0.0806875 0.0605508 0)
(-0.0960401 0.0573977 0)
(-0.104132 0.043467 0)
(-0.110347 0.03171 0)
(-0.110606 0.0218052 0)
(-0.1078 0.0109079 0)
(-0.104805 0.00361055 0)
(-0.100478 -0.00405844 0)
(-0.0968558 -0.00989602 0)
(-0.0921741 -0.0173608 0)
(-0.0859744 -0.0273806 0)
(-0.0777115 -0.0416541 0)
(-0.0648321 -0.0625063 0)
(-0.0444102 -0.0843981 0)
(-0.0205715 -0.082903 0)
(-0.00199036 0.00429504 0)
(-0.00999103 0.0103143 0)
(-0.0215244 0.0241068 0)
(-0.0419769 0.0489295 0)
(-0.0668905 0.0701913 0)
(-0.0808717 0.0740835 0)
(-0.089378 0.06475 0)
(-0.0910633 0.0479943 0)
(-0.0924248 0.0345519 0)
(-0.0909445 0.0200702 0)
(-0.0871928 0.00738749 0)
(-0.0824695 -0.00155512 0)
(-0.0763107 -0.00911526 0)
(-0.0712146 -0.0149396 0)
(-0.0660335 -0.0222219 0)
(-0.0609519 -0.03217 0)
(-0.0558143 -0.0471159 0)
(-0.0479781 -0.0714062 0)
(-0.0338423 -0.101891 0)
(-0.0171004 -0.110186 0)
(-0.00310639 0.0122086 0)
(-0.0137139 0.0221122 0)
(-0.0267511 0.0409343 0)
(-0.0471848 0.0690258 0)
(-0.0625364 0.0830444 0)
(-0.0718552 0.0825711 0)
(-0.076276 0.0683809 0)
(-0.0760328 0.0499611 0)
(-0.0789915 0.0347895 0)
(-0.0784289 0.0180422 0)
(-0.0739209 0.0030231 0)
(-0.0676521 -0.00807802 0)
(-0.0599427 -0.0160258 0)
(-0.0534453 -0.0212137 0)
(-0.0477151 -0.0277637 0)
(-0.0428894 -0.0372334 0)
(-0.0388527 -0.0516323 0)
(-0.0343097 -0.0754482 0)
(-0.0277037 -0.114959 0)
(-0.0107824 -0.135139 0)
(-0.00348658 0.0212887 0)
(-0.014694 0.0344162 0)
(-0.026861 0.0559266 0)
(-0.043366 0.0827093 0)
(-0.0519934 0.0913927 0)
(-0.0588749 0.0878742 0)
(-0.0616234 0.070873 0)
(-0.0624431 0.0515278 0)
(-0.066901 0.0351487 0)
(-0.0669612 0.0160322 0)
(-0.0626556 -0.00265236 0)
(-0.0562376 -0.0171762 0)
(-0.0476981 -0.0255018 0)
(-0.0400839 -0.0290515 0)
(-0.0339796 -0.0334415 0)
(-0.0294381 -0.0417012 0)
(-0.0262031 -0.0553677 0)
(-0.0224003 -0.0786571 0)
(-0.0204863 -0.119286 0)
(-0.0082965 -0.151194 0)
(-0.00300375 0.0304922 0)
(-0.0130469 0.0456682 0)
(-0.0225308 0.0678841 0)
(-0.0336789 0.0912518 0)
(-0.0376195 0.0967824 0)
(-0.0429201 0.091775 0)
(-0.0450799 0.0739487 0)
(-0.0460721 0.0546507 0)
(-0.0501862 0.0368485 0)
(-0.0504434 0.0156665 0)
(-0.0472433 -0.0062433 0)
(-0.042138 -0.0246825 0)
(-0.0351949 -0.0345169 0)
(-0.0284778 -0.0372379 0)
(-0.023181 -0.0389427 0)
(-0.019325 -0.0454384 0)
(-0.0173676 -0.0582024 0)
(-0.0147341 -0.081587 0)
(-0.0163843 -0.123696 0)
(-0.00475143 -0.165636 0)
(-0.00173104 0.0376578 0)
(-0.00979064 0.0544459 0)
(-0.0146865 0.0749467 0)
(-0.0211888 0.0957126 0)
(-0.0219156 0.100201 0)
(-0.0244771 0.0948809 0)
(-0.0265052 0.0773108 0)
(-0.0268448 0.0572959 0)
(-0.0291277 0.0379744 0)
(-0.0287855 0.0156124 0)
(-0.0264986 -0.0079895 0)
(-0.0231971 -0.0292325 0)
(-0.0191881 -0.0398363 0)
(-0.0156615 -0.0422445 0)
(-0.0129613 -0.0424023 0)
(-0.0107662 -0.0475035 0)
(-0.0105263 -0.0591617 0)
(-0.00852141 -0.0820585 0)
(-0.0123464 -0.123817 0)
(-0.00344376 -0.174798 0)
(-0.000413372 0.0430887 0)
(-0.0056229 0.0601089 0)
(-0.00653297 0.0774805 0)
(-0.00749113 0.097013 0)
(-0.00654182 0.101017 0)
(-0.0055914 0.0963129 0)
(-0.00601897 0.0792092 0)
(-0.00608175 0.058747 0)
(-0.0065347 0.0381389 0)
(-0.00517982 0.015042 0)
(-0.00363769 -0.00894915 0)
(-0.00215713 -0.0298772 0)
(-0.0013874 -0.0420135 0)
(-0.00225788 -0.043617 0)
(-0.00316811 -0.0431971 0)
(-0.00330352 -0.0476664 0)
(-0.00537392 -0.058888 0)
(-0.00418282 -0.0821337 0)
(-0.0103711 -0.124331 0)
(-0.00120803 -0.183711 0)
(0.00154459 0.0442662 0)
(-0.00111094 0.0625329 0)
(-5.03204e-05 0.0762671 0)
(0.0047827 0.0942415 0)
(0.00926676 0.0994339 0)
(0.012803 0.094938 0)
(0.0148431 0.0805696 0)
(0.0160202 0.0598335 0)
(0.016787 0.0379684 0)
(0.0182724 0.0145322 0)
(0.0188921 -0.00928935 0)
(0.0190401 -0.0295559 0)
(0.0155354 -0.03962 0)
(0.00977721 -0.0406215 0)
(0.00550379 -0.0408009 0)
(0.00319681 -0.0454458 0)
(-0.00124015 -0.0567633 0)
(-0.000453892 -0.0800022 0)
(-0.00872235 -0.122251 0)
(-0.000214535 -0.189421 0)
(0.0021473 0.0432805 0)
(0.00270198 0.0624949 0)
(0.00492685 0.0725773 0)
(0.0125141 0.08668 0)
(0.021307 0.0943208 0)
(0.0286618 0.0909396 0)
(0.0334897 0.0789402 0)
(0.0368735 0.0594967 0)
(0.0384712 0.0378511 0)
(0.039681 0.015003 0)
(0.0392673 -0.00715173 0)
(0.0361703 -0.0253281 0)
(0.0282046 -0.0338055 0)
(0.019049 -0.0348451 0)
(0.0125008 -0.0360744 0)
(0.00830555 -0.0414665 0)
(0.0017844 -0.0534492 0)
(0.00265291 -0.0772268 0)
(-0.0083951 -0.12067 0)
(0.00175758 -0.195706 0)
(0.00264166 0.0403718 0)
(0.00528518 0.0606046 0)
(0.00837438 0.0677875 0)
(0.0156815 0.0764679 0)
(0.0266579 0.0834792 0)
(0.0371441 0.0820693 0)
(0.0452445 0.0727495 0)
(0.0508087 0.056434 0)
(0.0537325 0.0367167 0)
(0.0543492 0.0156883 0)
(0.051768 -0.00382922 0)
(0.0460678 -0.01839 0)
(0.0352641 -0.0248004 0)
(0.0250392 -0.0268916 0)
(0.0175676 -0.0297445 0)
(0.0121566 -0.0361232 0)
(0.00403946 -0.0486902 0)
(0.00551081 -0.072913 0)
(-0.00868302 -0.117738 0)
(0.00319964 -0.19972 0)
(0.00269807 0.0355117 0)
(0.00669879 0.0567826 0)
(0.0102701 0.0628601 0)
(0.0162681 0.0670233 0)
(0.0261947 0.0706917 0)
(0.0375104 0.0696936 0)
(0.0473755 0.0627358 0)
(0.054764 0.0500863 0)
(0.0581294 0.0332927 0)
(0.058179 0.0169587 0)
(0.0555898 0.00135824 0)
(0.0479789 -0.00977054 0)
(0.0375693 -0.0152852 0)
(0.0284841 -0.0187042 0)
(0.0209972 -0.022844 0)
(0.0150042 -0.0299987 0)
(0.00575931 -0.0431322 0)
(0.00810148 -0.0678301 0)
(-0.00983824 -0.115082 0)
(0.00608389 -0.204268 0)
(0.0020822 0.0309015 0)
(0.00665028 0.0529724 0)
(0.0108024 0.0583044 0)
(0.0160077 0.059706 0)
(0.0238192 0.0601919 0)
(0.0335706 0.0582798 0)
(0.0431578 0.0527428 0)
(0.0507635 0.0430938 0)
(0.0556953 0.0315638 0)
(0.0563716 0.0182831 0)
(0.0528381 0.00665383 0)
(0.0458859 -0.00145061 0)
(0.0378875 -0.00679711 0)
(0.0304335 -0.0111162 0)
(0.0234534 -0.0159641 0)
(0.0174226 -0.0235072 0)
(0.00751725 -0.0369707 0)
(0.0106375 -0.0617629 0)
(-0.0110755 -0.11189 0)
(0.00950763 -0.20667 0)
(0.00130744 0.0268704 0)
(0.00587615 0.0477879 0)
(0.010268 0.0532896 0)
(0.0154286 0.0536299 0)
(0.0220019 0.052354 0)
(0.0299025 0.0495491 0)
(0.0379698 0.0446873 0)
(0.0447386 0.0373817 0)
(0.0490407 0.0285554 0)
(0.0502373 0.0193551 0)
(0.0480415 0.0113117 0)
(0.0435821 0.00486947 0)
(0.037973 -0.000207317 0)
(0.0320747 -0.00461373 0)
(0.02587 -0.0094812 0)
(0.0200964 -0.0169531 0)
(0.00997082 -0.0304893 0)
(0.0134768 -0.0553331 0)
(-0.0114606 -0.109313 0)
(0.0151452 -0.20926 0)
(-3.15731e-05 0.024259 0)
(0.00341521 0.0445006 0)
(0.00844183 0.0484733 0)
(0.0143346 0.0477634 0)
(0.0208259 0.0455628 0)
(0.0278337 0.0423941 0)
(0.0346982 0.038105 0)
(0.0404965 0.0325911 0)
(0.044393 0.0263424 0)
(0.0460141 0.019934 0)
(0.0454008 0.0140249 0)
(0.0428963 0.00891546 0)
(0.0391055 0.00467272 0)
(0.034545 0.000795928 0)
(0.0292213 -0.00361213 0)
(0.0239684 -0.0106255 0)
(0.0142374 -0.0238893 0)
(0.0176599 -0.0489283 0)
(-0.00940249 -0.107791 0)
(0.0221386 -0.209847 0)
(-0.0022422 0.0237843 0)
(0.00121631 0.0389252 0)
(0.00646285 0.0423085 0)
(0.0127921 0.0411471 0)
(0.0194862 0.0388231 0)
(0.0262984 0.0359048 0)
(0.0327506 0.0324013 0)
(0.0382752 0.0282871 0)
(0.042473 0.0236014 0)
(0.0451095 0.0189347 0)
(0.0457982 0.0148572 0)
(0.0448402 0.0112991 0)
(0.042573 0.00817742 0)
(0.0394348 0.00509515 0)
(0.0352208 0.00144789 0)
(0.0308837 -0.00474233 0)
(0.0219975 -0.0172004 0)
(0.0249302 -0.0429149 0)
(-0.00347192 -0.106344 0)
(0.0320486 -0.210218 0)
(-0.00547035 0.0268225 0)
(-0.00578862 0.0373122 0)
(0.00169452 0.0371348 0)
(0.00948677 0.0343143 0)
(0.0176688 0.031542 0)
(0.0257019 0.0286826 0)
(0.0331049 0.025837 0)
(0.0396741 0.0227444 0)
(0.0448322 0.0198241 0)
(0.0485093 0.0168957 0)
(0.0506482 0.0142439 0)
(0.0517496 0.0118316 0)
(0.0515749 0.00982628 0)
(0.0506353 0.00768259 0)
(0.0481245 0.00529489 0)
(0.045374 0.000417974 0)
(0.0377422 -0.0103059 0)
(0.0394302 -0.0369389 0)
(0.0102959 -0.104525 0)
(0.0454577 -0.201777 0)
(-0.00988722 0.0382243 0)
(-0.0108183 0.0245654 0)
(0.00336797 0.0230156 0)
(0.0141569 0.021916 0)
(0.0249257 0.0206442 0)
(0.0353523 0.0189324 0)
(0.0444244 0.0172865 0)
(0.0530561 0.0155596 0)
(0.0599382 0.0139934 0)
(0.0662223 0.0124269 0)
(0.0707197 0.0110867 0)
(0.0749454 0.00978979 0)
(0.0774021 0.008818 0)
(0.0799386 0.00764715 0)
(0.0803233 0.00617362 0)
(0.0806789 0.0021249 0)
(0.0745181 -0.00705306 0)
(0.0746149 -0.0323805 0)
(0.0462284 -0.0916089 0)
(0.0698891 -0.160377 0)
(0.0452618 0.0402742 0)
(0.0516248 0.0295686 0)
(0.0743963 0.0225477 0)
(0.098031 0.0184153 0)
(0.113955 0.0163756 0)
(0.131024 0.0141477 0)
(0.143141 0.0130164 0)
(0.157864 0.0111214 0)
(0.167534 0.0106417 0)
(0.180008 0.00890885 0)
(0.18745 0.00897138 0)
(0.197696 0.00721513 0)
(0.203322 0.00777114 0)
(0.211264 0.00586913 0)
(0.215227 0.00679588 0)
(0.220444 0.00405694 0)
(0.218757 0.00205319 0)
(0.209096 -0.00463792 0)
(0.173246 -0.0145783 0)
(0.13445 -0.036894 0)
)
;

boundaryField
{
    movingWall
    {
        type            fixedValue;
        value           uniform (1 0 0);
    }
    fixedWalls
    {
        type            noSlip;
    }
    frontAndBack
    {
        type            empty;
    }
}


// ************************************************************************* //
