/*--------------------------------*- C++ -*----------------------------------*\
| =========                 |                                                 |
| \\      /  F ield         | OpenFOAM: The Open Source CFD Toolbox           |
|  \\    /   O peration     | Version:  5.0                                   |
|   \\  /    A nd           | Web:      www.OpenFOAM.org                      |
|    \\/     M anipulation  |                                                 |
\*---------------------------------------------------------------------------*/
FoamFile
{
    version     2.0;
    format      ascii;
    class       volScalarField;
    location    "3.5";
    object      p;
}
// * * * * * * * * * * * * * * * * * * * * * * * * * * * * * * * * * * * * * //

dimensions      [0 2 -2 0 0 0 0];

internalField   nonuniform List<scalar> 
400
(
2.90297e-08
-2.90358e-05
-7.09282e-05
-0.000211206
-0.000116594
-0.000457371
-0.00146711
-0.00261509
-0.00355363
-0.00418301
-0.00447026
-0.00446413
-0.00420282
-0.0036759
-0.00267819
-0.000966015
0.00150614
0.00457608
0.00728103
0.00828984
4.1248e-05
2.77721e-05
-1.64234e-06
-0.000174557
-0.000574647
-0.00127827
-0.00229312
-0.0033189
-0.00416354
-0.00467423
-0.00488281
-0.0048548
-0.0046099
-0.00417328
-0.00345172
-0.0021947
-0.00019787
0.00256415
0.00551959
0.00702688
7.55408e-05
4.6227e-05
-0.000123055
-0.000580293
-0.00137448
-0.00238043
-0.00349138
-0.00451302
-0.00522682
-0.00560753
-0.00567632
-0.00551727
-0.00516913
-0.0047112
-0.00419441
-0.00347495
-0.00224347
-0.000198148
0.00258974
0.00440311
1.59598e-05
-8.06364e-05
-0.000488844
-0.00129084
-0.00240272
-0.00359566
-0.0046905
-0.00550325
-0.00598921
-0.00617487
-0.00607133
-0.00578048
-0.00540371
-0.00497539
-0.00456611
-0.00414724
-0.00356946
-0.00227098
-0.000251835
0.00156972
-0.000262538
-0.000447768
-0.00108575
-0.0021663
-0.00342449
-0.00461345
-0.00561743
-0.00640135
-0.00685857
-0.00697355
-0.00676063
-0.00631792
-0.0058197
-0.00531702
-0.00486183
-0.00450293
-0.00425944
-0.00355064
-0.00234552
-0.00080414
-0.000768432
-0.00102277
-0.00181224
-0.00304615
-0.00434432
-0.00552358
-0.00656904
-0.00745417
-0.00795285
-0.00804779
-0.00774609
-0.00713605
-0.00645835
-0.0058158
-0.00527302
-0.00488276
-0.00474758
-0.00433185
-0.00371996
-0.00253862
-0.00145569
-0.00172928
-0.00257588
-0.00385771
-0.00520527
-0.00643476
-0.00760062
-0.00864895
-0.00925865
-0.0093759
-0.00898684
-0.00817872
-0.00726196
-0.00641567
-0.00573527
-0.0052666
-0.00515527
-0.00485454
-0.0045577
-0.00371458
-0.00214224
-0.0024117
-0.00329006
-0.00456559
-0.00597797
-0.0072962
-0.00858358
-0.00978704
-0.0104863
-0.0106202
-0.0101827
-0.00921083
-0.00805164
-0.00698879
-0.00616875
-0.00560245
-0.00547386
-0.00516777
-0.00509328
-0.00441023
-0.00273972
-0.00296421
-0.00384605
-0.0050948
-0.00656637
-0.00796308
-0.00930644
-0.0105762
-0.0113268
-0.0114703
-0.0110107
-0.00994575
-0.00859737
-0.00735489
-0.00646557
-0.00579749
-0.00567753
-0.00529376
-0.00539509
-0.004775
-0.00314941
-0.00337199
-0.00417192
-0.00538072
-0.00685989
-0.00829582
-0.00962083
-0.0108628
-0.0116071
-0.0117258
-0.0113002
-0.0101874
-0.00878402
-0.0074245
-0.00656023
-0.00579721
-0.00575115
-0.00522237
-0.00553693
-0.00488114
-0.00334427
-0.00356787
-0.00427874
-0.00537359
-0.00674636
-0.00817364
-0.00944285
-0.0105592
-0.0112525
-0.0113797
-0.0109519
-0.00991887
-0.00854213
-0.0072587
-0.00635971
-0.00567996
-0.00563194
-0.00500045
-0.00553413
-0.0047929
-0.00340622
-0.00358043
-0.00415023
-0.00506795
-0.00624484
-0.00756946
-0.00875678
-0.00975712
-0.0103977
-0.010531
-0.0101389
-0.00919541
-0.00794702
-0.00678515
-0.00595763
-0.00540975
-0.00536937
-0.00468155
-0.00542862
-0.00453238
-0.00339736
-0.00352001
-0.0038577
-0.00456493
-0.00551101
-0.00662477
-0.00769377
-0.00857904
-0.00914468
-0.00926735
-0.00891694
-0.00811395
-0.00708385
-0.00613116
-0.00545614
-0.00503137
-0.00502936
-0.00430321
-0.00526779
-0.004125
-0.0033581
-0.00342477
-0.00355114
-0.00398316
-0.00464217
-0.00547732
-0.00634752
-0.0070898
-0.00757356
-0.00770679
-0.00747301
-0.00689776
-0.00614261
-0.00543668
-0.00493321
-0.00462047
-0.00466828
-0.00391225
-0.00509608
-0.00355771
-0.00331365
-0.00331312
-0.00329687
-0.00344351
-0.00379762
-0.00434221
-0.00499401
-0.00560578
-0.00605151
-0.00624455
-0.00615352
-0.00579496
-0.00530615
-0.0048337
-0.00448437
-0.00425509
-0.00432015
-0.00357511
-0.00485834
-0.00284354
-0.00325933
-0.00317693
-0.00305768
-0.00300541
-0.00313221
-0.00344602
-0.00391286
-0.00441932
-0.00485013
-0.00509185
-0.00510775
-0.00494961
-0.00468335
-0.0043927
-0.00415678
-0.00397862
-0.00402466
-0.00335489
-0.00456595
-0.00199245
-0.00320231
-0.00303741
-0.0028295
-0.00268142
-0.00269488
-0.00287503
-0.00321796
-0.0036442
-0.00404311
-0.00432579
-0.00446403
-0.00444661
-0.00430885
-0.00412488
-0.00395603
-0.00382199
-0.00383666
-0.00326696
-0.00419724
-0.000885
-0.00316814
-0.00286797
-0.00260548
-0.00239954
-0.00236064
-0.00249372
-0.00279134
-0.00319963
-0.00361463
-0.00394203
-0.00413128
-0.00418024
-0.00412101
-0.00398819
-0.00384149
-0.00367776
-0.00357562
-0.00317232
-0.00340806
0.00188548
-0.00332377
-0.00281239
-0.00246566
-0.00218952
-0.00213353
-0.00227276
-0.00257381
-0.00299639
-0.00343165
-0.00378584
-0.00400362
-0.0040939
-0.00407138
-0.00397651
-0.00386564
-0.0038065
-0.00381674
-0.00291569
0.000279725
0.0122106
-0.00454758
-0.00229629
-0.00189411
-0.00182809
-0.00185702
-0.00202111
-0.00234076
-0.00276258
-0.00322753
-0.00362691
-0.00390848
-0.00404026
-0.00406132
-0.00399091
-0.00383158
-0.00342805
-0.0022882
0.00156731
0.0132007
0.0351196
)
;

boundaryField
{
    movingWall
    {
        type            zeroGradient;
    }
    fixedWalls
    {
        type            zeroGradient;
    }
    frontAndBack
    {
        type            empty;
    }
}


// ************************************************************************* //
