/*--------------------------------*- C++ -*----------------------------------*\
| =========                 |                                                 |
| \\      /  F ield         | OpenFOAM: The Open Source CFD Toolbox           |
|  \\    /   O peration     | Version:  5.0                                   |
|   \\  /    A nd           | Web:      www.OpenFOAM.org                      |
|    \\/     M anipulation  |                                                 |
\*---------------------------------------------------------------------------*/
FoamFile
{
    version     2.0;
    format      ascii;
    class       surfaceScalarField;
    location    "3.5";
    object      phi;
}
// * * * * * * * * * * * * * * * * * * * * * * * * * * * * * * * * * * * * * //

dimensions      [0 3 -1 0 0 0 0];

internalField   nonuniform List<scalar> 
760
(
2.51393e-08
-2.51422e-08
1.95276e-08
5.61156e-09
-1.25696e-07
1.45224e-07
-6.44077e-07
5.18381e-07
-1.80593e-06
1.16185e-06
-3.2644e-06
1.45848e-06
-4.42639e-06
1.16198e-06
-5.31111e-06
8.84725e-07
-5.95511e-06
6.43995e-07
-6.37454e-06
4.19429e-07
-6.65623e-06
2.81693e-07
-6.78282e-06
1.2659e-07
-6.80406e-06
2.12375e-08
-6.71256e-06
-9.14969e-08
-6.48761e-06
-2.24948e-07
-6.01686e-06
-4.70757e-07
-5.12623e-06
-8.90626e-07
-3.63256e-06
-1.49367e-06
-1.57794e-06
-2.05462e-06
-1.57794e-06
-1.23618e-07
9.84758e-08
-4.43258e-07
3.25251e-07
-1.26015e-06
9.62118e-07
-2.67697e-06
1.9352e-06
-4.02672e-06
2.51159e-06
-4.8278e-06
2.25956e-06
-5.50471e-06
1.83889e-06
-6.05733e-06
1.43735e-06
-6.41913e-06
1.00579e-06
-6.66993e-06
6.70229e-07
-6.72972e-06
3.41483e-07
-6.68991e-06
8.67856e-08
-6.56439e-06
-1.04285e-07
-6.37209e-06
-2.83796e-07
-6.11356e-06
-4.83477e-07
-5.7242e-06
-8.60123e-07
-5.08099e-06
-1.53383e-06
-3.90508e-06
-2.66958e-06
-2.10682e-06
-3.85288e-06
-3.68476e-06
-3.65925e-07
4.64401e-07
-1.11537e-06
1.0747e-06
-2.3531e-06
2.19985e-06
-3.52039e-06
3.10249e-06
-4.23964e-06
3.23083e-06
-4.72545e-06
2.74538e-06
-5.03101e-06
2.14445e-06
-5.12301e-06
1.52935e-06
-5.04054e-06
9.23324e-07
-4.88558e-06
5.15266e-07
-4.6742e-06
1.30099e-07
-4.47223e-06
-1.15182e-07
-4.28236e-06
-2.94158e-07
-4.10034e-06
-4.65809e-07
-3.97324e-06
-6.10579e-07
-3.83906e-06
-9.94303e-07
-3.63779e-06
-1.73511e-06
-3.04702e-06
-3.26035e-06
-1.87268e-06
-5.02722e-06
-5.55744e-06
-6.03923e-07
1.06832e-06
-1.55685e-06
2.02762e-06
-2.63374e-06
3.27674e-06
-3.35798e-06
3.82673e-06
-3.76795e-06
3.6408e-06
-3.90476e-06
2.88218e-06
-3.9635e-06
2.20319e-06
-3.99942e-06
1.56527e-06
-3.98915e-06
9.13047e-07
-3.87012e-06
3.9624e-07
-3.59833e-06
-1.41689e-07
-3.2491e-06
-4.64418e-07
-2.8593e-06
-6.83958e-07
-2.4913e-06
-8.33809e-07
-2.20957e-06
-8.92301e-07
-2.0901e-06
-1.11378e-06
-2.17026e-06
-1.65494e-06
-2.1481e-06
-3.28251e-06
-1.37712e-06
-5.7982e-06
-6.93455e-06
-6.78719e-07
1.74704e-06
-1.56829e-06
2.91719e-06
-2.32189e-06
4.03034e-06
-2.805e-06
4.30985e-06
-3.07468e-06
3.91049e-06
-3.26124e-06
3.06874e-06
-3.52195e-06
2.46391e-06
-3.7726e-06
1.81592e-06
-3.88985e-06
1.0303e-06
-3.78348e-06
2.89869e-07
-3.48684e-06
-4.38325e-07
-3.03097e-06
-9.20292e-07
-2.49422e-06
-1.2207e-06
-1.97252e-06
-1.35551e-06
-1.53663e-06
-1.32819e-06
-1.23921e-06
-1.4112e-06
-1.17461e-06
-1.71955e-06
-1.28962e-06
-3.16751e-06
-1.06155e-06
-6.02627e-06
-7.9961e-06
-6.06763e-07
2.35381e-06
-1.31899e-06
3.62942e-06
-1.85636e-06
4.56771e-06
-2.24652e-06
4.70001e-06
-2.53814e-06
4.20211e-06
-2.8757e-06
3.4063e-06
-3.26599e-06
2.85419e-06
-3.57502e-06
2.12495e-06
-3.72568e-06
1.18096e-06
-3.66079e-06
2.24973e-07
-3.40145e-06
-6.97664e-07
-2.94906e-06
-1.37268e-06
-2.38917e-06
-1.78059e-06
-1.81969e-06
-1.92499e-06
-1.30206e-06
-1.84582e-06
-8.81857e-07
-1.8314e-06
-7.01939e-07
-1.89946e-06
-7.21827e-07
-3.14762e-06
-6.8253e-07
-6.06557e-06
-8.67863e-06
-4.29607e-07
2.78341e-06
-9.21626e-07
4.12144e-06
-1.31998e-06
4.96606e-06
-1.67441e-06
5.05445e-06
-2.01372e-06
4.54141e-06
-2.396e-06
3.78858e-06
-2.78023e-06
3.23842e-06
-3.07126e-06
2.41597e-06
-3.21474e-06
1.32444e-06
-3.1862e-06
1.96436e-07
-2.99266e-06
-8.91198e-07
-2.6051e-06
-1.76025e-06
-2.09572e-06
-2.28997e-06
-1.55765e-06
-2.46306e-06
-1.06163e-06
-2.34184e-06
-6.78431e-07
-2.2146e-06
-4.54152e-07
-2.12374e-06
-4.6995e-07
-3.13182e-06
-5.56177e-07
-5.97934e-06
-9.23481e-06
-2.20433e-07
3.00385e-06
-4.91142e-07
4.39215e-06
-7.71504e-07
5.24642e-06
-1.03046e-06
5.31341e-06
-1.33824e-06
4.8492e-06
-1.69548e-06
4.14582e-06
-1.98701e-06
3.52995e-06
-2.19549e-06
2.62445e-06
-2.31493e-06
1.44388e-06
-2.32982e-06
2.11322e-07
-2.2287e-06
-9.92313e-07
-1.95571e-06
-2.03324e-06
-1.57672e-06
-2.66896e-06
-1.16267e-06
-2.87711e-06
-7.66666e-07
-2.73785e-06
-4.54949e-07
-2.52632e-06
-2.58242e-07
-2.32045e-06
-2.67417e-07
-3.12265e-06
-3.63275e-07
-5.88348e-06
-9.59808e-06
3.35383e-08
2.97031e-06
-5.76739e-08
4.48336e-06
-1.9538e-07
5.38413e-06
-3.63954e-07
5.48198e-06
-5.87153e-07
5.0724e-06
-8.16607e-07
4.37527e-06
-9.84521e-07
3.69786e-06
-1.10149e-06
2.74142e-06
-1.17947e-06
1.52186e-06
-1.21966e-06
2.51511e-07
-1.19158e-06
-1.02039e-06
-1.05263e-06
-2.17219e-06
-8.335e-07
-2.88809e-06
-5.96555e-07
-3.11406e-06
-3.58296e-07
-2.97611e-06
-1.97515e-07
-2.6871e-06
-9.30181e-08
-2.42494e-06
-1.55346e-07
-3.06032e-06
-3.20002e-07
-5.71883e-06
-9.91808e-06
1.92289e-07
2.77802e-06
3.64639e-07
4.31101e-06
4.03348e-07
5.34542e-06
3.76281e-07
5.50905e-06
2.63185e-07
5.18549e-06
1.42778e-07
4.49568e-06
8.54746e-08
3.75517e-06
5.80625e-08
2.76883e-06
3.15215e-08
1.5484e-06
-1.07951e-08
2.93828e-07
-1.55612e-08
-1.01562e-06
-1.77849e-08
-2.16997e-06
2.82037e-09
-2.90869e-06
1.95361e-08
-3.13077e-06
7.60592e-08
-3.03263e-06
3.7597e-08
-2.64863e-06
7.89901e-08
-2.46634e-06
-6.46213e-08
-2.91671e-06
-2.24246e-07
-5.5592e-06
-1.01423e-05
3.44512e-07
2.43351e-06
6.97675e-07
3.95785e-06
9.45858e-07
5.09723e-06
1.1e-06
5.3549e-06
1.15381e-06
5.13168e-06
1.12627e-06
4.52322e-06
1.16406e-06
3.71738e-06
1.18712e-06
2.74578e-06
1.1706e-06
1.56492e-06
1.1255e-06
3.38923e-07
1.04052e-06
-9.30638e-07
9.33873e-07
-2.06332e-06
8.02218e-07
-2.77704e-06
6.65371e-07
-2.99393e-06
4.91922e-07
-2.85918e-06
3.41723e-07
-2.49844e-06
2.15144e-07
-2.33976e-06
1.40117e-09
-2.70296e-06
-2.18736e-07
-5.33907e-06
-1.03611e-05
4.29518e-07
2.00399e-06
9.07563e-07
3.4798e-06
1.39476e-06
4.61004e-06
1.69072e-06
5.05894e-06
1.89167e-06
4.93073e-06
1.99145e-06
4.42344e-06
2.08194e-06
3.62689e-06
2.16218e-06
2.66554e-06
2.18451e-06
1.54259e-06
2.13925e-06
3.84179e-07
2.02596e-06
-8.17345e-07
1.82701e-06
-1.86437e-06
1.54679e-06
-2.49682e-06
1.21281e-06
-2.65995e-06
8.66302e-07
-2.51267e-06
5.91289e-07
-2.22342e-06
3.46825e-07
-2.09529e-06
6.68356e-08
-2.42298e-06
-1.59286e-07
-5.11295e-06
-1.05204e-05
4.34936e-07
1.56905e-06
9.49189e-07
2.96555e-06
1.65869e-06
3.90053e-06
2.15954e-06
4.55809e-06
2.51812e-06
4.57216e-06
2.75333e-06
4.18822e-06
2.9235e-06
3.45673e-06
3.03641e-06
2.55263e-06
3.07743e-06
1.50156e-06
3.03566e-06
4.25953e-07
2.87297e-06
-6.54657e-07
2.55253e-06
-1.54393e-06
2.11206e-06
-2.05635e-06
1.62732e-06
-2.17521e-06
1.16903e-06
-2.05438e-06
7.92714e-07
-1.84711e-06
4.59129e-07
-1.76171e-06
1.11481e-07
-2.07533e-06
-1.70865e-07
-4.8306e-06
-1.06912e-05
3.76975e-07
1.19208e-06
8.3461e-07
2.50792e-06
1.55789e-06
3.17726e-06
2.26299e-06
3.85299e-06
2.82269e-06
4.01245e-06
3.22659e-06
3.78433e-06
3.5078e-06
3.17551e-06
3.68169e-06
2.37874e-06
3.74007e-06
1.44319e-06
3.66037e-06
5.05652e-07
3.40053e-06
-3.94819e-07
2.97736e-06
-1.12076e-06
2.43406e-06
-1.51305e-06
1.85223e-06
-1.59337e-06
1.3184e-06
-1.52055e-06
8.67972e-07
-1.39669e-06
5.10664e-07
-1.4044e-06
1.12064e-07
-1.67673e-06
-1.05892e-07
-4.61264e-06
-1.07971e-05
2.74065e-07
9.18012e-07
6.55212e-07
2.12677e-06
1.2358e-06
2.59667e-06
1.99144e-06
3.09735e-06
2.70169e-06
3.3022e-06
3.27723e-06
3.20879e-06
3.66628e-06
2.78646e-06
3.88552e-06
2.1595e-06
3.9359e-06
1.39282e-06
3.83864e-06
6.02912e-07
3.56463e-06
-1.20814e-07
3.0981e-06
-6.54234e-07
2.51421e-06
-9.29155e-07
1.92695e-06
-1.00611e-06
1.40405e-06
-9.97648e-07
9.38808e-07
-9.31445e-07
5.58183e-07
-1.02377e-06
1.232e-07
-1.24174e-06
-1.51086e-08
-4.47434e-06
-1.08122e-05
1.10116e-07
8.07896e-07
3.824e-07
1.85448e-06
7.94801e-07
2.18427e-06
1.44888e-06
2.44327e-06
2.15942e-06
2.59166e-06
2.82299e-06
2.54523e-06
3.33882e-06
2.27063e-06
3.67187e-06
1.82644e-06
3.78721e-06
1.27749e-06
3.69303e-06
6.9709e-07
3.39609e-06
1.76127e-07
2.93074e-06
-1.88885e-07
2.40053e-06
-3.98942e-07
1.88845e-06
-4.94033e-07
1.4058e-06
-5.15002e-07
9.6926e-07
-4.94906e-07
5.9506e-07
-6.49575e-07
2.26892e-07
-8.73575e-07
1.80597e-07
-4.42804e-06
-1.06316e-05
-7.48533e-08
8.82749e-07
1.6256e-07
1.61707e-06
5.13913e-07
1.83291e-06
1.03817e-06
1.91901e-06
1.65615e-06
1.97368e-06
2.2785e-06
1.92287e-06
2.78862e-06
1.76051e-06
3.14058e-06
1.47448e-06
3.31467e-06
1.10339e-06
3.28015e-06
7.31618e-07
3.05001e-06
4.06266e-07
2.68781e-06
1.73314e-07
2.27494e-06
1.39298e-08
1.84137e-06
-6.04654e-08
1.43744e-06
-1.1107e-07
1.04503e-06
-1.02501e-07
6.52569e-07
-2.5711e-07
4.04386e-07
-6.25393e-07
4.57973e-07
-4.48163e-06
-1.01736e-05
-4.24048e-07
1.3068e-06
-2.80679e-07
1.4737e-06
7.46217e-08
1.47761e-06
5.50374e-07
1.44326e-06
1.10028e-06
1.42378e-06
1.65583e-06
1.36731e-06
2.15065e-06
1.26569e-06
2.52455e-06
1.10059e-06
2.74557e-06
8.82371e-07
2.79083e-06
6.86357e-07
2.69073e-06
5.0637e-07
2.48027e-06
3.83773e-07
2.20144e-06
2.92753e-07
1.87423e-06
2.66747e-07
1.50648e-06
2.56684e-07
1.13543e-06
2.6854e-07
8.54518e-07
2.3806e-08
9.63543e-07
-7.34418e-07
1.01027e-06
-4.52836e-06
-9.16337e-06
-7.86632e-07
2.09343e-06
-5.06895e-07
1.19397e-06
9.18145e-09
9.61536e-07
5.49634e-07
9.02809e-07
1.12883e-06
8.44585e-07
1.68833e-06
8.07806e-07
2.21773e-06
7.36297e-07
2.6242e-06
6.9412e-07
2.90483e-06
6.01739e-07
3.03397e-06
5.57216e-07
3.07248e-06
4.67863e-07
3.0024e-06
4.53848e-07
2.89665e-06
3.98504e-07
2.73974e-06
4.23659e-07
2.63687e-06
3.59551e-07
2.60205e-06
3.03367e-07
2.615e-06
1.0857e-08
2.86923e-06
-9.88652e-07
2.22466e-06
-3.88379e-06
-6.93871e-06
2.09343e-06
3.2874e-06
4.24893e-06
5.15174e-06
5.99633e-06
6.80413e-06
7.54043e-06
8.23455e-06
8.83629e-06
9.3935e-06
9.86137e-06
1.03152e-05
1.07137e-05
1.11374e-05
1.14969e-05
1.18003e-05
1.18112e-05
1.08225e-05
6.93871e-06
)
;

boundaryField
{
    movingWall
    {
        type            calculated;
        value           uniform 0;
    }
    fixedWalls
    {
        type            calculated;
        value           uniform 0;
    }
    frontAndBack
    {
        type            empty;
        value           nonuniform 0();
    }
}


// ************************************************************************* //
