/*--------------------------------*- C++ -*----------------------------------*\
| =========                 |                                                 |
| \\      /  F ield         | OpenFOAM: The Open Source CFD Toolbox           |
|  \\    /   O peration     | Version:  5.0                                   |
|   \\  /    A nd           | Web:      www.OpenFOAM.org                      |
|    \\/     M anipulation  |                                                 |
\*---------------------------------------------------------------------------*/
FoamFile
{
    version     2.0;
    format      ascii;
    class       volVectorField;
    location    "3.5";
    object      U;
}
// * * * * * * * * * * * * * * * * * * * * * * * * * * * * * * * * * * * * * //

dimensions      [0 1 -1 0 0 0 0];

internalField   nonuniform List<vector> 
400
(
(0.000336052 -0.000682091 0)
(0.000613434 -0.000917516 0)
(0.00032964 -0.000849044 0)
(-0.00623716 -0.000227361 0)
(-0.0168331 0.00577777 0)
(-0.0525362 0.0167773 0)
(-0.0828914 0.0118231 0)
(-0.0993391 0.0105594 0)
(-0.115721 0.00865009 0)
(-0.123562 0.00601594 0)
(-0.130924 0.00597647 0)
(-0.134405 0.00352166 0)
(-0.136802 0.00336634 0)
(-0.137598 0.00162486 0)
(-0.134905 -0.000338301 0)
(-0.126452 -0.00387187 0)
(-0.110795 -0.00932141 0)
(-0.0856705 -0.0154211 0)
(-0.0506174 -0.0187813 0)
(-0.0167992 -0.00670726 0)
(-0.000613138 -0.000182272 0)
(-0.00423406 0.00124895 0)
(-0.0126885 0.00748309 0)
(-0.0361998 0.0230364 0)
(-0.069365 0.0408569 0)
(-0.0906227 0.0378678 0)
(-0.106243 0.0316477 0)
(-0.117399 0.0230219 0)
(-0.127078 0.0157923 0)
(-0.130763 0.0101177 0)
(-0.134102 0.00504844 0)
(-0.133557 0.00106357 0)
(-0.133271 -0.00282022 0)
(-0.130789 -0.00616489 0)
(-0.128389 -0.010518 0)
(-0.120699 -0.0181992 0)
(-0.108856 -0.0310139 0)
(-0.0878919 -0.0500829 0)
(-0.0577673 -0.0679815 0)
(-0.0249991 -0.0550633 0)
(-0.00215849 0.0045082 0)
(-0.0116885 0.012485 0)
(-0.0313602 0.0319541 0)
(-0.061203 0.0526301 0)
(-0.080272 0.057523 0)
(-0.091618 0.0502184 0)
(-0.100274 0.0390011 0)
(-0.103917 0.0306314 0)
(-0.10233 0.0208739 0)
(-0.0995368 0.0135945 0)
(-0.0944752 0.00637969 0)
(-0.0902389 0.00136159 0)
(-0.0869343 -0.00233739 0)
(-0.0829684 -0.00646809 0)
(-0.0828586 -0.0105285 0)
(-0.0804398 -0.0193991 0)
(-0.0773852 -0.0357494 0)
(-0.0662846 -0.0648878 0)
(-0.0464875 -0.0946844 0)
(-0.023766 -0.100251 0)
(-0.00398917 0.0150191 0)
(-0.0186663 0.0316811 0)
(-0.042335 0.0558901 0)
(-0.0628545 0.0695144 0)
(-0.0744631 0.0684233 0)
(-0.0792951 0.0563338 0)
(-0.0798047 0.0441949 0)
(-0.0806781 0.0317526 0)
(-0.0803847 0.0186174 0)
(-0.0789039 0.00939565 0)
(-0.0736504 0.000140514 0)
(-0.0677327 -0.00471243 0)
(-0.060763 -0.00774315 0)
(-0.0521175 -0.010439 0)
(-0.0469678 -0.0121137 0)
(-0.043524 -0.0181349 0)
(-0.0445608 -0.032143 0)
(-0.0425269 -0.0674872 0)
(-0.0379912 -0.112123 0)
(-0.0110941 -0.128196 0)
(-0.00471682 0.0280595 0)
(-0.0206067 0.0496661 0)
(-0.041647 0.0740466 0)
(-0.0535188 0.0813484 0)
(-0.0618348 0.0751619 0)
(-0.0637484 0.0593994 0)
(-0.0682378 0.0468447 0)
(-0.0751763 0.0332657 0)
(-0.0773926 0.0190205 0)
(-0.0774507 0.00659574 0)
(-0.0719167 -0.00598192 0)
(-0.0643149 -0.0141166 0)
(-0.054968 -0.0192996 0)
(-0.0436699 -0.0220445 0)
(-0.0338648 -0.0219265 0)
(-0.0270254 -0.0239159 0)
(-0.0260749 -0.0306385 0)
(-0.0216915 -0.0601996 0)
(-0.0282929 -0.119428 0)
(-0.00834196 -0.152002 0)
(-0.00410738 0.0408718 0)
(-0.0183967 0.0655506 0)
(-0.0346106 0.0857685 0)
(-0.0426561 0.0896055 0)
(-0.0498589 0.0806769 0)
(-0.0531468 0.0641329 0)
(-0.0626324 0.0518394 0)
(-0.0714454 0.03827 0)
(-0.0734825 0.0211607 0)
(-0.0748939 0.00446769 0)
(-0.0697533 -0.0122934 0)
(-0.0625832 -0.0238929 0)
(-0.05287 -0.030872 0)
(-0.0413336 -0.0335033 0)
(-0.0302152 -0.0324418 0)
(-0.020571 -0.0333386 0)
(-0.0175948 -0.0365628 0)
(-0.00963739 -0.0632402 0)
(-0.0212387 -0.119349 0)
(-0.00151112 -0.166327 0)
(-0.00234281 0.0510226 0)
(-0.0132952 0.0771693 0)
(-0.0245091 0.0949643 0)
(-0.0309931 0.0969905 0)
(-0.0383013 0.085887 0)
(-0.0430659 0.0702795 0)
(-0.0534232 0.0597693 0)
(-0.0615637 0.0439279 0)
(-0.0634249 0.0236007 0)
(-0.0649256 0.00331662 0)
(-0.0609856 -0.0175995 0)
(-0.0548207 -0.0334875 0)
(-0.0464194 -0.0427869 0)
(-0.0357402 -0.0456145 0)
(-0.0256394 -0.0428201 0)
(-0.0155041 -0.0409523 0)
(-0.0141012 -0.0398343 0)
(-0.00286699 -0.0614955 0)
(-0.0179544 -0.120873 0)
(-0.000674414 -0.179212 0)
(-0.00102029 0.0587213 0)
(-0.00661328 0.0856901 0)
(-0.014233 0.101897 0)
(-0.0184267 0.103436 0)
(-0.0247921 0.0933893 0)
(-0.0294712 0.0783783 0)
(-0.0386543 0.0665779 0)
(-0.0444555 0.0493681 0)
(-0.0453272 0.0267054 0)
(-0.0471148 0.00345238 0)
(-0.0451543 -0.0202992 0)
(-0.0404959 -0.0398294 0)
(-0.0346134 -0.0516375 0)
(-0.0266232 -0.0552869 0)
(-0.0200192 -0.0524291 0)
(-0.0092786 -0.048782 0)
(-0.0111188 -0.0455491 0)
(0.00217983 -0.0628625 0)
(-0.0148995 -0.117449 0)
(0.00328898 -0.186947 0)
(0.00138206 0.0601346 0)
(0.000494208 0.0890311 0)
(-0.00334337 0.106679 0)
(-0.0051603 0.107544 0)
(-0.0107529 0.0983662 0)
(-0.0133692 0.0848096 0)
(-0.0191116 0.0720219 0)
(-0.0228813 0.0535011 0)
(-0.0226388 0.0292874 0)
(-0.0243908 0.00413624 0)
(-0.0240604 -0.0209394 0)
(-0.0212001 -0.0434889 0)
(-0.0183456 -0.0566731 0)
(-0.0134115 -0.0607294 0)
(-0.0113733 -0.0581476 0)
(-0.00160188 -0.0524052 0)
(-0.0080126 -0.0475322 0)
(0.00543968 -0.0614328 0)
(-0.0135502 -0.116347 0)
(0.00359054 -0.194822 0)
(0.00214048 0.0584667 0)
(0.00664325 0.0890447 0)
(0.00713897 0.108219 0)
(0.00794554 0.111494 0)
(0.00564333 0.103963 0)
(0.00405792 0.0892034 0)
(0.00183647 0.0755236 0)
(0.000639453 0.0559973 0)
(0.00116457 0.0315146 0)
(0.00014477 0.00585571 0)
(-0.000683968 -0.0199552 0)
(0.000258343 -0.0430538 0)
(-0.000803902 -0.0582434 0)
(0.00124328 -0.0630931 0)
(-0.000952716 -0.0608417 0)
(0.00499408 -0.0539813 0)
(-0.00448417 -0.0496199 0)
(0.00909206 -0.0596301 0)
(-0.0131899 -0.111619 0)
(0.00685988 -0.199703 0)
(0.00306429 0.053456 0)
(0.0119765 0.0842317 0)
(0.015865 0.105964 0)
(0.0206863 0.109851 0)
(0.0216946 0.105009 0)
(0.0222692 0.0922743 0)
(0.0220826 0.0763181 0)
(0.0222768 0.0566837 0)
(0.0233 0.0323119 0)
(0.022914 0.0067591 0)
(0.0218913 -0.0191783 0)
(0.0220463 -0.0421003 0)
(0.0181977 -0.0566217 0)
(0.0158514 -0.0612096 0)
(0.00959537 -0.0589032 0)
(0.0119051 -0.0516108 0)
(-0.00103498 -0.0479248 0)
(0.0123425 -0.0557214 0)
(-0.0134918 -0.109367 0)
(0.0076542 -0.205221 0)
(0.00441992 0.044974 0)
(0.0139128 0.0758154 0)
(0.0232327 0.100231 0)
(0.0311549 0.106355 0)
(0.0349751 0.102361 0)
(0.0379447 0.0914898 0)
(0.0397972 0.0748421 0)
(0.0412814 0.0551354 0)
(0.0429231 0.0316778 0)
(0.043445 0.00743189 0)
(0.0425848 -0.0169902 0)
(0.0415271 -0.038443 0)
(0.0351017 -0.0521913 0)
(0.0292293 -0.0563029 0)
(0.0184248 -0.0535866 0)
(0.0179655 -0.0471602 0)
(0.00216089 -0.044496 0)
(0.0154176 -0.0514314 0)
(-0.0147542 -0.102984 0)
(0.0111882 -0.208569 0)
(0.00503865 0.0359574 0)
(0.0126133 0.0644006 0)
(0.0270719 0.086215 0)
(0.0383959 0.0984882 0)
(0.04654 0.0974609 0)
(0.0516626 0.0885222 0)
(0.0556748 0.073146 0)
(0.0589289 0.0538978 0)
(0.0603906 0.0319813 0)
(0.0618511 0.00896872 0)
(0.0604648 -0.0138834 0)
(0.0575474 -0.0333751 0)
(0.048026 -0.0449293 0)
(0.0388773 -0.0479397 0)
(0.0255857 -0.0454684 0)
(0.0229433 -0.0405845 0)
(0.00474604 -0.0384252 0)
(0.0181859 -0.0446183 0)
(-0.0166023 -0.100267 0)
(0.0130548 -0.212618 0)
(0.00394059 0.0273253 0)
(0.0109483 0.0550306 0)
(0.0241537 0.0706925 0)
(0.0386045 0.0858955 0)
(0.051082 0.0885103 0)
(0.0599545 0.082639 0)
(0.066396 0.0691315 0)
(0.0716415 0.0520319 0)
(0.073781 0.0312599 0)
(0.0752308 0.00986135 0)
(0.07181 -0.0103461 0)
(0.0668616 -0.0260456 0)
(0.055181 -0.035202 0)
(0.044296 -0.0373832 0)
(0.0294292 -0.0354412 0)
(0.0252078 -0.0323142 0)
(0.00528675 -0.0317272 0)
(0.0202694 -0.0372709 0)
(-0.0189827 -0.094022 0)
(0.0177248 -0.214762 0)
(0.00195391 0.0204724 0)
(0.0090727 0.0452296 0)
(0.0183217 0.0561928 0)
(0.0323024 0.0684963 0)
(0.047125 0.0729629 0)
(0.0600559 0.0706406 0)
(0.0689124 0.0605455 0)
(0.075758 0.0457281 0)
(0.0779889 0.0284141 0)
(0.0789039 0.0115505 0)
(0.0753512 -0.00455228 0)
(0.0692483 -0.0173661 0)
(0.0566613 -0.0242323 0)
(0.0456017 -0.0256848 0)
(0.0314633 -0.0247633 0)
(0.0266907 -0.0229789 0)
(0.0066103 -0.0241252 0)
(0.0211558 -0.0288386 0)
(-0.0198129 -0.0910781 0)
(0.0218376 -0.21742 0)
(-0.000427255 0.0165993 0)
(0.00513617 0.040403 0)
(0.0108999 0.0478863 0)
(0.022025 0.0546803 0)
(0.0360312 0.0581108 0)
(0.0502403 0.0569059 0)
(0.0610499 0.0501966 0)
(0.0705159 0.0400362 0)
(0.0747493 0.0271202 0)
(0.0762712 0.0130929 0)
(0.0717816 0.000224944 0)
(0.0650861 -0.00849865 0)
(0.053392 -0.0131707 0)
(0.0440399 -0.0148076 0)
(0.0315307 -0.0149927 0)
(0.0266342 -0.0137079 0)
(0.00817332 -0.0160717 0)
(0.0209776 -0.020501 0)
(-0.0169082 -0.0887124 0)
(0.0288825 -0.218399 0)
(-0.00332391 0.016213 0)
(0.000744117 0.0330592 0)
(0.0062945 0.0391331 0)
(0.0150807 0.0420825 0)
(0.0265447 0.0439016 0)
(0.0394598 0.0427535 0)
(0.0504136 0.038577 0)
(0.0595039 0.0317065 0)
(0.0646239 0.023214 0)
(0.0669082 0.0139274 0)
(0.0638661 0.00613581 0)
(0.0588543 0.000353192 0)
(0.0498017 -0.00342854 0)
(0.0423388 -0.00552452 0)
(0.0317685 -0.00620353 0)
(0.0272783 -0.00698833 0)
(0.0109554 -0.0111887 0)
(0.0200642 -0.0156791 0)
(-0.010558 -0.0928688 0)
(0.0370883 -0.221998 0)
(-0.00715076 0.0205371 0)
(-0.00827579 0.0333492 0)
(-0.00268383 0.0354901 0)
(0.00604623 0.035539 0)
(0.0160005 0.0355576 0)
(0.0276103 0.0341283 0)
(0.0377843 0.0310421 0)
(0.0468084 0.0259528 0)
(0.0529053 0.0194732 0)
(0.0561084 0.0141497 0)
(0.0552835 0.00943043 0)
(0.0527411 0.00624416 0)
(0.0470453 0.0038475 0)
(0.0419401 0.00310997 0)
(0.033208 0.00206588 0)
(0.0282042 0.00356637 0)
(0.0147138 0.0025068 0)
(0.0230664 -0.0102965 0)
(0.00497658 -0.100057 0)
(0.0499642 -0.217551 0)
(-0.0124701 0.035702 0)
(-0.0162769 0.0221117 0)
(-0.0047009 0.020213 0)
(0.00524915 0.0199978 0)
(0.0163927 0.0196089 0)
(0.028144 0.0186339 0)
(0.0388562 0.0175554 0)
(0.0484339 0.0159925 0)
(0.0555279 0.0140408 0)
(0.0598522 0.0117802 0)
(0.0616153 0.00964961 0)
(0.0613269 0.00814776 0)
(0.0594244 0.00716493 0)
(0.0572656 0.00688293 0)
(0.0533704 0.00724777 0)
(0.052571 0.00523228 0)
(0.0459638 -0.00265358 0)
(0.0517834 -0.0263427 0)
(0.0450985 -0.103465 0)
(0.0735677 -0.177596 0)
(0.0445333 0.0400896 0)
(0.050271 0.0296005 0)
(0.0736463 0.0221746 0)
(0.0932443 0.0188682 0)
(0.113376 0.0162746 0)
(0.127089 0.0155957 0)
(0.144305 0.0136369 0)
(0.156208 0.0135077 0)
(0.171226 0.0114805 0)
(0.181496 0.0116915 0)
(0.193369 0.00975973 0)
(0.201916 0.0104398 0)
(0.210568 0.00858141 0)
(0.218003 0.00969217 0)
(0.223503 0.00784712 0)
(0.23017 0.009034 0)
(0.232431 0.00462152 0)
(0.225118 -0.00169408 0)
(0.195178 -0.0133068 0)
(0.144933 -0.0312945 0)
)
;

boundaryField
{
    movingWall
    {
        type            fixedValue;
        value           uniform (1 0 0);
    }
    fixedWalls
    {
        type            noSlip;
    }
    frontAndBack
    {
        type            empty;
    }
}


// ************************************************************************* //
