/*--------------------------------*- C++ -*----------------------------------*\
| =========                 |                                                 |
| \\      /  F ield         | OpenFOAM: The Open Source CFD Toolbox           |
|  \\    /   O peration     | Version:  5.0                                   |
|   \\  /    A nd           | Web:      www.OpenFOAM.org                      |
|    \\/     M anipulation  |                                                 |
\*---------------------------------------------------------------------------*/
FoamFile
{
    version     2.0;
    format      ascii;
    class       volScalarField;
    location    "3.5";
    object      yPlus;
}
// * * * * * * * * * * * * * * * * * * * * * * * * * * * * * * * * * * * * * //

dimensions      [0 0 0 0 0 0 0];

internalField   uniform 0;

boundaryField
{
    movingWall
    {
        type            calculated;
        value           nonuniform List<scalar> 
20
(
15.4621
15.4126
15.2202
15.0578
14.8894
14.7737
14.6271
14.525
14.3949
14.3055
14.2011
14.1258
14.0488
13.9826
13.9332
13.8734
13.8526
13.9184
14.1857
14.6257
)
;
    }
    fixedWalls
    {
        type            calculated;
        value           nonuniform List<scalar> 
60
(
0.435999
0.399893
1.11784
1.97103
2.66708
3.20459
3.57339
3.83178
3.87784
3.82446
3.65868
3.3612
3.01284
2.62716
2.26746
2.03745
2.0341
2.33165
3.07478
3.8704
2.12654
3.8882
5.07517
5.67175
6.16909
6.44852
6.69353
6.83696
6.97953
7.0679
7.16526
7.22615
7.29758
7.33983
7.39111
7.42126
7.50125
7.47019
6.93236
6.08837
0.435999
0.525284
0.477177
1.24913
2.10933
3.71315
4.57521
4.99747
5.38618
5.56121
5.72408
5.79765
5.849
5.86531
5.80744
5.62386
5.27225
4.66496
3.67387
2.12654
)
;
    }
    frontAndBack
    {
        type            empty;
    }
}


// ************************************************************************* //
