/*--------------------------------*- C++ -*----------------------------------*\
  =========                 |
  \\      /  F ield         | OpenFOAM: The Open Source CFD Toolbox
   \\    /   O peration     | Website:  https://openfoam.org
    \\  /    A nd           | Version:  6
     \\/     M anipulation  |
\*---------------------------------------------------------------------------*/
FoamFile
{
    version     2.0;
    format      ascii;
    class       volScalarField;
    location    "0.7";
    object      p;
}
// * * * * * * * * * * * * * * * * * * * * * * * * * * * * * * * * * * * * * //

dimensions      [0 2 -2 0 0 0 0];

internalField   nonuniform List<scalar> 
400
(
-1.61376e-06
-0.00287974
-0.00826722
-0.0144946
-0.0195694
-0.0216368
-0.0191149
-0.0108588
0.0036202
0.0238418
0.00285963
-4.25461e-05
-0.0043145
-0.00896656
-0.0126855
-0.014009
-0.0115864
-0.00438314
0.00809646
0.0255097
0.00834297
0.00414339
-0.000293731
-0.00438257
-0.0074208
-0.00831409
-0.00597368
0.000465159
0.0114455
0.0267096
0.0151067
0.00887547
0.00333005
-0.00107832
-0.00412185
-0.00498118
-0.00278225
0.00317237
0.0132482
0.0272261
0.0215619
0.0130333
0.0059146
0.000707621
-0.00272733
-0.0037756
-0.00172408
0.00398281
0.0136331
0.0270242
0.0261078
0.0151643
0.0062038
-8.35807e-05
-0.00411075
-0.00540876
-0.00337543
0.00243323
0.0122357
0.0258324
0.0269438
0.0134618
0.00247658
-0.00503405
-0.0096904
-0.011124
-0.00880098
-0.00235908
0.00836409
0.023169
0.0217665
0.00553246
-0.00763022
-0.0163705
-0.0214905
-0.0227047
-0.0195281
-0.0116638
0.00100703
0.0182969
0.00729465
-0.0120514
-0.0275401
-0.037345
-0.0424718
-0.0427469
-0.0377611
-0.0273036
-0.0112988
0.0101123
-0.0215002
-0.0445424
-0.062466
-0.0728428
-0.0769918
-0.0749751
-0.0665795
-0.0517717
-0.030542
-0.00291275
0.0469789
0.0677918
0.0829863
0.0917135
0.094335
0.0920792
0.0867099
0.0802509
0.0747874
0.071963
0.0454557
0.0633723
0.0764583
0.0840634
0.0865793
0.085111
0.0811574
0.0763171
0.0719864
0.0691526
0.0442129
0.0599635
0.0715332
0.0783695
0.0808103
0.0797813
0.0765098
0.0722244
0.0677257
0.0636175
0.0432964
0.057829
0.0685908
0.0750266
0.0773685
0.076367
0.0730459
0.0683836
0.06274
0.0566048
0.0424895
0.0565923
0.0671517
0.073538
0.0758472
0.0746717
0.0708952
0.0653352
0.0580353
0.049568
0.0416204
0.0562026
0.0673128
0.0741747
0.0767115
0.0753676
0.0709387
0.0641578
0.0548654
0.0438762
0.0404445
0.0566793
0.0693755
0.0775265
0.0808304
0.079574
0.0745005
0.0663185
0.0547503
0.040986
0.0385375
0.057962
0.0736905
0.0843848
0.0894284
0.0888973
0.0834755
0.0738724
0.0597326
0.0427623
0.0352009
0.0598498
0.0806587
0.0958341
0.104291
0.105754
0.100756
0.0899615
0.0729213
0.0520491
0.0294078
0.0619583
0.090738
0.113369
0.128058
0.133887
0.130979
0.119761
0.0995496
0.0737253
-0.0707437
-0.0983285
-0.118521
-0.128246
-0.129467
-0.122784
-0.108453
-0.0868149
-0.0579806
-0.0217355
-0.143866
-0.176989
-0.198588
-0.205104
-0.199957
-0.184926
-0.161235
-0.129899
-0.0912124
-0.0445546
-0.243751
-0.283479
-0.304156
-0.302511
-0.285248
-0.256544
-0.219263
-0.175356
-0.125236
-0.0675748
-0.379503
-0.426429
-0.440377
-0.421205
-0.382582
-0.332789
-0.276876
-0.217647
-0.155225
-0.0870511
-0.570342
-0.620942
-0.613762
-0.56004
-0.486335
-0.406317
-0.326838
-0.250601
-0.176403
-0.0996524
-0.856872
-0.891531
-0.830115
-0.713555
-0.586786
-0.467316
-0.361234
-0.268689
-0.185351
-0.103613
-1.32
-1.27202
-1.09003
-0.870034
-0.670216
-0.504752
-0.37314
-0.268531
-0.181076
-0.0993621
-2.13993
-1.79918
-1.36961
-0.998973
-0.712751
-0.504083
-0.355891
-0.248428
-0.164456
-0.0889592
-3.775
-2.47515
-1.54651
-1.00357
-0.658775
-0.438632
-0.29886
-0.20547
-0.136
-0.0744243
-6.53311
-3.07666
-1.4245
-0.793361
-0.482264
-0.309193
-0.209922
-0.147373
-0.101348
-0.0589837
0.0204358
0.0639385
0.104266
0.138408
0.163578
0.177746
0.180108
0.170383
0.147211
0.115105
0.00916834
0.065757
0.120648
0.170427
0.211164
0.239189
0.251961
0.247535
0.222797
0.183234
-0.00219292
0.0678608
0.13877
0.207342
0.268785
0.317494
0.348245
0.355813
0.333047
0.285372
-0.0112184
0.0712035
0.158124
0.247557
0.334717
0.4124
0.472072
0.503159
0.490228
0.435104
-0.0160172
0.0761082
0.177269
0.287882
0.404754
0.520615
0.624279
0.698382
0.712903
0.656668
-0.0161849
0.0815375
0.193279
0.322991
0.471273
0.633982
0.800591
0.948629
1.02822
0.996322
-0.013109
0.0850353
0.201894
0.345675
0.523251
0.738642
0.988896
1.2541
1.47048
1.54005
-0.00952424
0.0829338
0.197327
0.345721
0.542985
0.807415
1.15487
1.58759
2.07609
2.47314
-0.00838881
0.0709435
0.172255
0.308567
0.500054
0.780253
1.19616
1.82187
2.84574
4.25325
-0.0104451
0.0507986
0.130743
0.239082
0.393165
0.629034
1.01789
1.75236
3.52708
7.10589
)
;

boundaryField
{
    movingWall
    {
        type            zeroGradient;
    }
    fixedWalls
    {
        type            zeroGradient;
    }
    frontAndBack
    {
        type            empty;
    }
}


// ************************************************************************* //
