/*--------------------------------*- C++ -*----------------------------------*\
| =========                 |                                                 |
| \\      /  F ield         | OpenFOAM: The Open Source CFD Toolbox           |
|  \\    /   O peration     | Version:  5.0                                   |
|   \\  /    A nd           | Web:      www.OpenFOAM.org                      |
|    \\/     M anipulation  |                                                 |
\*---------------------------------------------------------------------------*/
FoamFile
{
    version     2.0;
    format      ascii;
    class       volVectorField;
    location    "0.4";
    object      wallShearStress;
}
// * * * * * * * * * * * * * * * * * * * * * * * * * * * * * * * * * * * * * //

dimensions      [0 2 -2 0 0 0 0];

internalField   uniform (0 0 0);

boundaryField
{
    movingWall
    {
        type            calculated;
        value           nonuniform List<vector> 
20
(
(3.07518 -1.24307 0)
(2.34491 -0.851893 0)
(1.68654 -0.591287 0)
(1.25153 -0.357502 0)
(0.995967 -0.211495 0)
(0.835028 -0.129023 0)
(0.728327 -0.0803338 0)
(0.657995 -0.0493169 0)
(0.6141 -0.0277556 0)
(0.590989 -0.0109838 0)
(0.585972 0.00398942 0)
(0.598633 0.0195917 0)
(0.630795 0.0386337 0)
(0.687246 0.0655424 0)
(0.777339 0.108518 0)
(0.918765 0.184768 0)
(1.15268 0.329288 0)
(1.57561 0.576375 0)
(2.25988 0.865385 0)
(3.04206 1.28026 0)
)
;
    }
    fixedWalls
    {
        type            calculated;
        value           nonuniform List<vector> 
60
(
(-0.00163133 0.000825855 0)
(0.00130791 0.00145956 0)
(0.00525223 -0.00351581 0)
(0.00880828 -0.0131694 0)
(0.0119785 -0.0268327 0)
(0.0149733 -0.0442025 0)
(0.018 -0.0652171 0)
(0.0212467 -0.0900093 0)
(0.024905 -0.118881 0)
(0.0292284 -0.152306 0)
(0.034642 -0.190996 0)
(0.041935 -0.236076 0)
(0.0525918 -0.289446 0)
(0.0692956 -0.354468 0)
(0.0965019 -0.437183 0)
(0.140314 -0.548954 0)
(0.20141 -0.714744 0)
(0.224895 -0.990237 0)
(-0.105167 -1.4567 0)
(-1.88319 -2.27668 0)
(-0.00175519 -0.000824274 0)
(0.00103459 -0.00165459 0)
(0.00484486 0.00297635 0)
(0.00829499 0.0121729 0)
(0.0114223 0.025317 0)
(0.0145038 0.0422184 0)
(0.0178332 0.0630186 0)
(0.0216991 0.0881562 0)
(0.0264047 0.118352 0)
(0.0323221 0.154608 0)
(0.0399927 0.198269 0)
(0.0503043 0.251157 0)
(0.0647835 0.315882 0)
(0.0859806 0.396404 0)
(0.11772 0.49897 0)
(0.164065 0.634414 0)
(0.219294 0.825674 0)
(0.212863 1.11681 0)
(-0.177061 1.53726 0)
(-1.94668 2.27062 0)
(-0.000874561 0.00159877 0)
(-0.00137984 -0.00154785 0)
(0.00393448 -0.00542614 0)
(0.0134436 -0.00818698 0)
(0.0253336 -0.00956942 0)
(0.0379663 -0.00967975 0)
(0.0499141 -0.00871893 0)
(0.060004 -0.00691343 0)
(0.0673351 -0.00448707 0)
(0.0712743 -0.00165949 0)
(0.0714629 0.00134357 0)
(0.0678318 0.00427939 0)
(0.0606275 0.00688228 0)
(0.0504374 0.00886538 0)
(0.0382061 0.00993332 0)
(0.0252273 0.00981203 0)
(0.0130852 0.00830247 0)
(0.00353803 0.00536553 0)
(-0.00160451 0.00138483 0)
(-0.00089944 -0.00170895 0)
)
;
    }
    frontAndBack
    {
        type            empty;
    }
}


// ************************************************************************* //
