/*--------------------------------*- C++ -*----------------------------------*\
| =========                 |                                                 |
| \\      /  F ield         | OpenFOAM: The Open Source CFD Toolbox           |
|  \\    /   O peration     | Version:  5.0                                   |
|   \\  /    A nd           | Web:      www.OpenFOAM.org                      |
|    \\/     M anipulation  |                                                 |
\*---------------------------------------------------------------------------*/
FoamFile
{
    version     2.0;
    format      ascii;
    class       volScalarField;
    location    "2.5";
    object      epsilon;
}
// * * * * * * * * * * * * * * * * * * * * * * * * * * * * * * * * * * * * * //

dimensions      [0 2 -3 0 0 0 0];

internalField   nonuniform List<scalar> 
400
(
2.2339e-05
5.96063e-05
8.64674e-05
9.84275e-05
0.000103141
0.000110851
0.000146813
0.000258333
0.000474048
0.000738506
0.000966527
0.00114895
0.00131439
0.00147209
0.0015527
0.00157931
0.00150808
0.00113295
0.000631199
0.000386845
6.94174e-05
7.90762e-05
0.00011105
0.00013291
0.000151278
0.000187381
0.000286911
0.000475707
0.00070254
0.000892558
0.00104288
0.00119768
0.00137765
0.00158758
0.00181716
0.00204186
0.00215151
0.00215987
0.001799
0.00127611
0.000156193
0.000131
0.000172984
0.000215153
0.00025987
0.000330868
0.00045928
0.000639275
0.000817672
0.000965664
0.00110117
0.00125232
0.00143086
0.00163631
0.00186676
0.00211298
0.00233016
0.00242495
0.00235077
0.00203709
0.000240772
0.000182409
0.000227473
0.00028368
0.000346832
0.000433834
0.000563054
0.000718286
0.00085834
0.000978599
0.00110154
0.00124211
0.00140634
0.00159634
0.00182131
0.00208133
0.00236219
0.00252968
0.00256603
0.00246344
0.000310721
0.000223224
0.000265768
0.000328518
0.000400923
0.000491853
0.00060796
0.000731799
0.000848137
0.000957116
0.00106603
0.0011849
0.00132435
0.00150343
0.00173772
0.00203663
0.00238549
0.00266661
0.00277507
0.00282715
0.00036034
0.000250019
0.000286236
0.000348682
0.000420491
0.000503486
0.000602393
0.000713642
0.000813473
0.000901929
0.000988524
0.00108472
0.00120783
0.0013814
0.00163607
0.0019981
0.00245653
0.00285162
0.00300593
0.00311127
0.000389594
0.000263563
0.000290235
0.00034703
0.000415888
0.000493485
0.000579366
0.000668175
0.000748539
0.000820366
0.00089097
0.000969375
0.00107525
0.00124162
0.00151519
0.00194461
0.00254061
0.00310988
0.00332014
0.0033604
0.000401915
0.000267155
0.000286356
0.000338209
0.000400849
0.000468078
0.000535059
0.000602626
0.000668198
0.000727611
0.000785712
0.000850014
0.000941022
0.00109878
0.00138531
0.00187419
0.00260532
0.00339232
0.00369748
0.00356282
0.000398892
0.000264887
0.000276838
0.000320475
0.000375116
0.000433109
0.000487718
0.000537656
0.000585799
0.00063224
0.000680125
0.000734605
0.00081485
0.000964611
0.00125804
0.00179279
0.00264193
0.00367586
0.00415388
0.00373114
0.000390572
0.000259727
0.000264657
0.000300569
0.000347772
0.000398284
0.000444602
0.000482802
0.000515111
0.000546377
0.000582767
0.000629156
0.000702035
0.000845088
0.00113923
0.00170521
0.00265648
0.00392415
0.00463906
0.00385727
0.000375674
0.000252962
0.00025283
0.000281847
0.000322252
0.000366461
0.000407545
0.000439824
0.000462912
0.000481423
0.00050446
0.000540807
0.000606336
0.000741907
0.00102843
0.00160713
0.00264274
0.0041239
0.00515259
0.0039481
0.000361411
0.000246794
0.000242747
0.000265598
0.000300284
0.00033918
0.000376476
0.000406367
0.000426143
0.000438246
0.000450785
0.000475818
0.000530708
0.00065326
0.000921954
0.00148697
0.00256421
0.00423049
0.00565127
0.00399318
0.000347457
0.000240951
0.000234416
0.000252597
0.000282643
0.000317127
0.000351234
0.000379804
0.000399143
0.000409403
0.000416519
0.000432743
0.000474653
0.000578116
0.000817646
0.00134497
0.0024253
0.00426749
0.00610408
0.00401154
0.000333004
0.000234296
0.000227313
0.000242789
0.000269715
0.000300996
0.000332537
0.000359982
0.000379646
0.000390481
0.000395671
0.000406242
0.000436865
0.000519648
0.00072238
0.0011936
0.00223137
0.00422274
0.00637915
0.00401325
0.000322394
0.00022688
0.000223004
0.000239767
0.000267028
0.000298126
0.000329624
0.000357747
0.000379012
0.000391413
0.000397301
0.000405878
0.000429321
0.000494905
0.000666637
0.0010896
0.00205311
0.00409496
0.00648234
0.00399195
0.000322299
0.000220626
0.0002246
0.000245844
0.000276985
0.000311997
0.000347625
0.000380376
0.00040702
0.000426067
0.000438719
0.000451989
0.000479748
0.000544787
0.000699363
0.00107937
0.00198169
0.0040302
0.00633714
0.00397497
0.0003358
0.000224467
0.000243421
0.000283388
0.000333887
0.000389769
0.000447647
0.000504328
0.000556324
0.000602852
0.000644175
0.000687791
0.000746143
0.00084436
0.00102798
0.00141435
0.00223295
0.00415081
0.0058026
0.00391693
0.000380213
0.000263522
0.000352236
0.000472535
0.000609931
0.000758494
0.000913054
0.00107134
0.00122481
0.00137803
0.00152516
0.00168456
0.00185892
0.0020884
0.00238511
0.00288743
0.00360558
0.00509778
0.00549712
0.00385265
0.000477565
0.000429777
0.000848569
0.00136269
0.00187094
0.00238303
0.0028892
0.00340273
0.00388083
0.00436517
0.00480625
0.00527599
0.00572755
0.00623882
0.00674368
0.00736981
0.00727101
0.00681068
0.00566948
0.00370458
0.000382729
0.000559523
0.00091171
0.00125966
0.00159099
0.00189295
0.00218397
0.00244257
0.00271146
0.00292992
0.00318091
0.00335359
0.00358578
0.00371317
0.00391411
0.00399556
0.00407215
0.00406156
0.00395826
0.00350107
)
;

boundaryField
{
    movingWall
    {
        Cmu             0.09;
        kappa           0.41;
        E               9.8;
        type            epsilonWallFunction;
        value           nonuniform List<scalar> 
20
(
0.000382729
0.000559523
0.00091171
0.00125966
0.00159099
0.00189295
0.00218397
0.00244257
0.00271146
0.00292992
0.00318091
0.00335359
0.00358578
0.00371317
0.00391411
0.00399556
0.00407215
0.00406156
0.00395826
0.00350107
)
;
    }
    fixedWalls
    {
        Cmu             0.09;
        kappa           0.41;
        E               9.8;
        type            epsilonWallFunction;
        value           nonuniform List<scalar> 
60
(
2.2339e-05
6.94174e-05
0.000156193
0.000240772
0.000310721
0.00036034
0.000389594
0.000401915
0.000398892
0.000390572
0.000375674
0.000361411
0.000347457
0.000333004
0.000322394
0.000322299
0.0003358
0.000380213
0.000477565
0.000382729
0.000386845
0.00127611
0.00203709
0.00246344
0.00282715
0.00311127
0.0033604
0.00356282
0.00373114
0.00385727
0.0039481
0.00399318
0.00401154
0.00401325
0.00399195
0.00397497
0.00391693
0.00385265
0.00370458
0.00350107
2.2339e-05
5.96063e-05
8.64674e-05
9.84275e-05
0.000103141
0.000110851
0.000146813
0.000258333
0.000474048
0.000738506
0.000966527
0.00114895
0.00131439
0.00147209
0.0015527
0.00157931
0.00150808
0.00113295
0.000631199
0.000386845
)
;
    }
    frontAndBack
    {
        type            empty;
    }
}


// ************************************************************************* //
