/*--------------------------------*- C++ -*----------------------------------*\
| =========                 |                                                 |
| \\      /  F ield         | OpenFOAM: The Open Source CFD Toolbox           |
|  \\    /   O peration     | Version:  5.0                                   |
|   \\  /    A nd           | Web:      www.OpenFOAM.org                      |
|    \\/     M anipulation  |                                                 |
\*---------------------------------------------------------------------------*/
FoamFile
{
    version     2.0;
    format      ascii;
    class       volScalarField;
    location    "2.5";
    object      k;
}
// * * * * * * * * * * * * * * * * * * * * * * * * * * * * * * * * * * * * * //

dimensions      [0 2 -2 0 0 0 0];

internalField   nonuniform List<scalar> 
400
(
6.92563e-06
1.85109e-05
2.68394e-05
3.05188e-05
3.19687e-05
3.44647e-05
4.61754e-05
8.22031e-05
0.000151007
0.000234055
0.00030483
0.000361489
0.000413054
0.000462126
0.000486969
0.000495169
0.000472524
0.000355184
0.000198175
0.00012174
2.1595e-05
8.12285e-05
0.000106509
0.000112124
0.00011139
0.000118036
0.000164104
0.000268317
0.000405638
0.000542046
0.000665965
0.00078109
0.000888971
0.000983607
0.00105551
0.00109015
0.00109757
0.000973117
0.000657324
0.000399612
4.87097e-05
0.00016746
0.000218177
0.000237976
0.00024673
0.000271195
0.000350034
0.000481221
0.000624242
0.000754265
0.000869151
0.000975356
0.00107738
0.00117155
0.00124729
0.00128436
0.00129422
0.00121245
0.000927887
0.000636247
7.51683e-05
0.000238797
0.000308545
0.00034179
0.000360114
0.000394174
0.000479339
0.000608157
0.000741199
0.00086045
0.000967568
0.00106904
0.0011686
0.00126351
0.0013476
0.00139382
0.0014089
0.00135298
0.00108186
0.000769127
9.7062e-05
0.000294224
0.000377775
0.000421256
0.000446734
0.000481737
0.000559387
0.000676544
0.000795994
0.000902083
0.00100186
0.00109966
0.00119793
0.00129673
0.00139975
0.0014871
0.00152173
0.00150098
0.00124567
0.000882544
0.000112579
0.000331329
0.000424501
0.000475965
0.00050648
0.000537606
0.000598011
0.00069099
0.000793351
0.000895252
0.000991207
0.0010848
0.00118088
0.00128681
0.00140938
0.00154596
0.00162742
0.00163844
0.00139968
0.000971114
0.000121701
0.000351859
0.000451461
0.000509446
0.000544145
0.000570088
0.000609974
0.000681783
0.00077395
0.000866601
0.000954284
0.00103908
0.00113028
0.00124318
0.00138956
0.00156848
0.00173031
0.00178167
0.00156771
0.00104883
0.000125496
0.000359187
0.00046251
0.000525413
0.000564404
0.000587995
0.000612193
0.000659522
0.000730579
0.000808814
0.000887529
0.000966727
0.00105727
0.00117826
0.0013482
0.00157182
0.00181349
0.00192368
0.00173466
0.00111192
0.000124514
0.000357006
0.000461367
0.000528325
0.000572839
0.000597946
0.000613034
0.000636226
0.000680105
0.000740208
0.000808396
0.000882662
0.000973874
0.00110406
0.00129662
0.00156084
0.00186798
0.00205673
0.00190896
0.00116443
0.000121844
0.000351125
0.000456372
0.00052522
0.000572551
0.000602682
0.000616642
0.000626536
0.000644427
0.000679543
0.000731617
0.000798696
0.00089044
0.0010295
0.00124108
0.00153751
0.00189301
0.00216981
0.00207324
0.00120373
0.000117141
0.000341398
0.000446714
0.000517828
0.000569542
0.00060378
0.000621936
0.000628061
0.000633873
0.000646501
0.000675889
0.000729849
0.000817713
0.00096147
0.00118538
0.00150412
0.00189871
0.00225363
0.00222962
0.00123203
0.000112655
0.000329415
0.000435479
0.000508119
0.000563238
0.000603163
0.000627444
0.000636428
0.00063819
0.000642535
0.000655133
0.000689623
0.000764396
0.000903305
0.00112788
0.00145527
0.00187624
0.00229283
0.00236631
0.00124606
0.000108265
0.000317075
0.00042425
0.0004985
0.000556548
0.000601679
0.000632533
0.000648778
0.00065211
0.000651498
0.00065744
0.000678749
0.000734717
0.000854668
0.00106512
0.00138473
0.00181783
0.00230269
0.00248299
0.00125176
0.000103721
0.000305364
0.000414166
0.000490921
0.000552768
0.000602566
0.000638971
0.000662059
0.000671659
0.000671975
0.00067255
0.000684225
0.000723288
0.000816217
0.000997934
0.00129351
0.0017213
0.00226556
0.00254104
0.00125228
0.000100351
0.000297708
0.000409204
0.000490061
0.000554872
0.000608167
0.000650127
0.00067882
0.000694267
0.000698347
0.000698184
0.000703423
0.000728655
0.000795655
0.000939478
0.00119537
0.00160019
0.00219185
0.00255849
0.0012456
0.000100301
0.000298599
0.000412329
0.000497091
0.000566997
0.000626122
0.000674782
0.000710782
0.000733241
0.000743507
0.000746335
0.000750474
0.000766757
0.000814984
0.000924208
0.00114734
0.00152663
0.00211336
0.00246584
0.0012403
0.000104475
0.000308375
0.000431629
0.000526664
0.000607514
0.000678067
0.000738799
0.000788218
0.000824961
0.000849747
0.000865331
0.000878972
0.000900427
0.000945778
0.00103922
0.00122378
0.00152559
0.00208132
0.00228148
0.00122218
0.000118313
0.000347878
0.000506825
0.000633773
0.000747367
0.000851031
0.000945359
0.00103009
0.00110301
0.00116611
0.00121963
0.00127165
0.00132737
0.00140166
0.00150751
0.00167615
0.00187581
0.00219648
0.00208893
0.00120211
0.000148755
0.000438713
0.000729776
0.000984945
0.00120426
0.00140166
0.0015808
0.00174814
0.00189543
0.0020341
0.00215497
0.00227498
0.00238771
0.0025053
0.00262991
0.00274986
0.00269991
0.00250232
0.00201793
0.00115583
0.000119212
0.000174371
0.000284303
0.000392889
0.000496278
0.000590467
0.000681245
0.000761862
0.000845714
0.00091378
0.000992056
0.00104585
0.00111831
0.00115803
0.00122082
0.00124629
0.00127034
0.00126706
0.00123486
0.00109224
)
;

boundaryField
{
    movingWall
    {
        type            kqRWallFunction;
        value           nonuniform List<scalar> 
20
(
0.000119212
0.000174371
0.000284303
0.000392889
0.000496278
0.000590467
0.000681245
0.000761862
0.000845714
0.00091378
0.000992056
0.00104585
0.00111831
0.00115803
0.00122082
0.00124629
0.00127034
0.00126706
0.00123486
0.00109224
)
;
    }
    fixedWalls
    {
        type            kqRWallFunction;
        value           nonuniform List<scalar> 
60
(
6.92563e-06
2.1595e-05
4.87097e-05
7.51683e-05
9.7062e-05
0.000112579
0.000121701
0.000125496
0.000124514
0.000121844
0.000117141
0.000112655
0.000108265
0.000103721
0.000100351
0.000100301
0.000104475
0.000118313
0.000148755
0.000119212
0.00012174
0.000399612
0.000636247
0.000769127
0.000882544
0.000971114
0.00104883
0.00111192
0.00116443
0.00120373
0.00123203
0.00124606
0.00125176
0.00125228
0.0012456
0.0012403
0.00122218
0.00120211
0.00115583
0.00109224
6.92563e-06
1.85109e-05
2.68394e-05
3.05188e-05
3.19687e-05
3.44647e-05
4.61754e-05
8.22031e-05
0.000151007
0.000234055
0.00030483
0.000361489
0.000413054
0.000462126
0.000486969
0.000495169
0.000472524
0.000355184
0.000198175
0.00012174
)
;
    }
    frontAndBack
    {
        type            empty;
    }
}


// ************************************************************************* //
