/*--------------------------------*- C++ -*----------------------------------*\
| =========                 |                                                 |
| \\      /  F ield         | OpenFOAM: The Open Source CFD Toolbox           |
|  \\    /   O peration     | Version:  5.0                                   |
|   \\  /    A nd           | Web:      www.OpenFOAM.org                      |
|    \\/     M anipulation  |                                                 |
\*---------------------------------------------------------------------------*/
FoamFile
{
    version     2.0;
    format      ascii;
    class       volScalarField;
    location    "2.5";
    object      nut;
}
// * * * * * * * * * * * * * * * * * * * * * * * * * * * * * * * * * * * * * //

dimensions      [0 2 -1 0 0 0 0];

internalField   nonuniform List<scalar> 
400
(
1.93241e-07
5.17375e-07
7.49781e-07
8.51651e-07
8.91789e-07
9.6439e-07
1.30707e-06
2.35418e-06
4.32924e-06
6.6761e-06
8.65252e-06
1.02361e-05
1.16824e-05
1.30566e-05
1.37454e-05
1.39728e-05
1.33249e-05
1.00216e-05
5.59984e-06
3.44803e-06
6.0462e-07
7.50953e-06
9.19387e-06
8.51304e-06
7.38167e-06
6.69183e-06
8.4476e-06
1.36207e-05
2.1079e-05
2.96263e-05
3.82746e-05
4.58462e-05
5.16274e-05
5.48467e-05
5.51788e-05
5.23823e-05
5.03919e-05
3.9459e-05
2.16158e-05
1.12624e-05
1.36714e-06
1.92661e-05
2.4766e-05
2.36898e-05
2.1083e-05
2.00056e-05
2.40097e-05
3.2602e-05
4.28912e-05
5.30231e-05
6.17418e-05
6.83679e-05
7.30098e-05
7.5492e-05
7.5005e-05
7.02626e-05
6.46952e-05
5.45589e-05
3.29627e-05
1.78848e-05
2.11206e-06
2.81355e-05
3.7666e-05
3.70623e-05
3.36514e-05
3.22326e-05
3.67264e-05
4.63422e-05
5.7604e-05
6.8091e-05
7.64904e-05
8.28075e-05
8.7395e-05
9.00074e-05
8.97392e-05
8.40069e-05
7.56293e-05
6.51264e-05
4.10512e-05
2.1612e-05
2.72879e-06
3.49026e-05
4.83289e-05
4.86156e-05
4.48001e-05
4.24646e-05
4.63225e-05
5.62915e-05
6.7235e-05
7.65193e-05
8.47404e-05
9.18499e-05
9.75221e-05
0.00010066
0.000101476
9.7726e-05
8.73659e-05
7.6038e-05
5.0324e-05
2.47951e-05
3.16551e-06
3.95174e-05
5.66598e-05
5.84742e-05
5.49049e-05
5.16634e-05
5.34295e-05
6.02152e-05
6.96355e-05
7.99762e-05
8.94507e-05
9.76402e-05
0.000103909
0.000107882
0.000109268
0.000107652
9.70327e-05
8.47247e-05
5.8657e-05
2.728e-05
3.42153e-06
4.22761e-05
6.32022e-05
6.73088e-05
6.4076e-05
5.92723e-05
5.77979e-05
6.26101e-05
7.20203e-05
8.23897e-05
9.19887e-05
0.000100241
0.000106932
0.000112027
0.000114692
0.000113859
0.00010606
9.18652e-05
6.66221e-05
2.94619e-05
3.52668e-06
4.34632e-05
6.72326e-05
7.34615e-05
7.15223e-05
6.6477e-05
6.30402e-05
6.49612e-05
7.18905e-05
8.09172e-05
9.02287e-05
9.89519e-05
0.000106909
0.000113714
0.000118088
0.000118642
0.000113609
9.81773e-05
7.32433e-05
3.12319e-05
3.49804e-06
4.33045e-05
6.92006e-05
7.83882e-05
7.87303e-05
7.42965e-05
6.93493e-05
6.77581e-05
7.10635e-05
7.79953e-05
8.64774e-05
9.54505e-05
0.000104754
0.000113731
0.000120275
0.000122301
0.000118868
0.000103571
7.89553e-05
3.27059e-05
3.42097e-06
4.27217e-05
7.08267e-05
8.26003e-05
8.48353e-05
8.20779e-05
7.69729e-05
7.31755e-05
7.25586e-05
7.60648e-05
8.26638e-05
9.12529e-05
0.000101647
0.000112873
0.000121684
0.000124767
0.000121407
0.000107979
8.33894e-05
3.38083e-05
3.2874e-06
4.14677e-05
7.10351e-05
8.56247e-05
9.05939e-05
8.9531e-05
8.54197e-05
8.07174e-05
7.81176e-05
7.81364e-05
8.15016e-05
8.86473e-05
9.92502e-05
0.000112141
0.000122965
0.000126693
0.000122774
0.000110841
8.68315e-05
3.46015e-05
3.1604e-06
3.95725e-05
7.03109e-05
8.7488e-05
9.50813e-05
9.65341e-05
9.41144e-05
8.97062e-05
8.60175e-05
8.4785e-05
8.56902e-05
8.99551e-05
9.90888e-05
0.000112415
0.000124181
0.000128182
0.000123557
0.000111839
8.91745e-05
3.49946e-05
3.03611e-06
3.75524e-05
6.91032e-05
8.85412e-05
9.86299e-05
0.00010274
0.000102521
9.97414e-05
9.58863e-05
9.33076e-05
9.33943e-05
9.58144e-05
0.000102354
0.000113716
0.000124875
0.00012831
0.000122627
0.000111825
9.09021e-05
3.51539e-05
2.90755e-06
3.5819e-05
6.79151e-05
8.93381e-05
0.000101958
0.000108565
0.000110501
0.000109586
0.000106945
0.000104076
0.000102886
0.000103718
0.000107775
0.000115384
0.000124074
0.000126159
0.000119505
0.000109395
9.10968e-05
3.5168e-05
2.81125e-06
3.51582e-05
6.75786e-05
9.01476e-05
0.00010377
0.000111658
0.000115404
0.000115925
0.000114457
0.000112137
0.000110424
0.000109719
0.000111302
0.000115125
0.000119159
0.000118027
0.000112246
0.000105588
9.08817e-05
3.49793e-05
2.80928e-06
3.63715e-05
6.81273e-05
9.04596e-05
0.000104459
0.000113086
0.000117885
0.000119537
0.000118883
0.000116771
0.000114268
0.000112147
0.000110292
0.000109727
0.000109921
0.000109763
0.000105847
9.97389e-05
8.63536e-05
3.48308e-05
2.92542e-06
3.81285e-05
6.8882e-05
8.80902e-05
9.94844e-05
0.000106165
0.000109739
0.000110872
0.000110098
0.000107798
0.000104617
0.000101096
9.77952e-05
9.53441e-05
9.45533e-05
9.53e-05
9.38083e-05
9.39261e-05
8.07335e-05
3.43215e-05
3.31344e-06
4.13314e-05
6.56333e-05
7.65024e-05
8.24193e-05
8.59372e-05
8.80926e-05
8.91387e-05
8.93995e-05
8.88106e-05
8.77773e-05
8.63954e-05
8.53038e-05
8.46674e-05
8.57539e-05
8.75699e-05
8.78308e-05
8.51761e-05
7.14424e-05
3.37576e-05
4.17015e-06
4.0305e-05
5.64851e-05
6.40719e-05
6.97631e-05
7.41995e-05
7.7843e-05
8.08291e-05
8.33165e-05
8.53071e-05
8.69601e-05
8.82863e-05
8.95853e-05
9.05437e-05
9.23053e-05
9.23439e-05
9.02292e-05
8.2744e-05
6.46418e-05
3.2456e-05
3.34188e-06
4.89073e-06
7.97898e-06
1.10289e-05
1.39324e-05
1.65766e-05
1.9125e-05
2.13869e-05
2.37403e-05
2.5649e-05
2.78461e-05
2.93544e-05
3.13895e-05
3.25042e-05
3.42699e-05
3.49868e-05
3.56664e-05
3.55752e-05
3.46718e-05
3.06672e-05
)
;

boundaryField
{
    movingWall
    {
        type            nutkWallFunction;
        Cmu             0.09;
        kappa           0.41;
        E               9.8;
        value           uniform 0;
    }
    fixedWalls
    {
        type            nutkWallFunction;
        Cmu             0.09;
        kappa           0.41;
        E               9.8;
        value           uniform 0;
    }
    frontAndBack
    {
        type            empty;
    }
}


// ************************************************************************* //
