/*--------------------------------*- C++ -*----------------------------------*\
| =========                 |                                                 |
| \\      /  F ield         | OpenFOAM: The Open Source CFD Toolbox           |
|  \\    /   O peration     | Version:  5.0                                   |
|   \\  /    A nd           | Web:      www.OpenFOAM.org                      |
|    \\/     M anipulation  |                                                 |
\*---------------------------------------------------------------------------*/
FoamFile
{
    version     2.0;
    format      ascii;
    class       volScalarField;
    location    "2.5";
    object      p;
}
// * * * * * * * * * * * * * * * * * * * * * * * * * * * * * * * * * * * * * //

dimensions      [0 2 -2 0 0 0 0];

internalField   nonuniform List<scalar> 
400
(
5.17424e-08
-2.2799e-05
-4.89627e-05
-9.08936e-05
-0.000155346
-0.000233729
-0.000301885
-0.000374186
-0.000556883
-0.000912356
-0.00131442
-0.00150554
-0.00130615
-0.000678358
0.000350621
0.0017075
0.00314784
0.00433299
0.00500048
0.00509315
3.22522e-05
1.38326e-05
-2.92269e-06
-3.43824e-05
-9.82787e-05
-0.000210479
-0.000372349
-0.000586713
-0.000903983
-0.0013358
-0.0017533
-0.00197405
-0.00186446
-0.00135399
-0.000399648
0.000909788
0.00237463
0.00368806
0.00454934
0.00486894
4.33921e-05
1.28615e-05
-7.87437e-06
-3.79448e-05
-0.000109934
-0.000262264
-0.000528446
-0.00092321
-0.001435
-0.00199881
-0.00249465
-0.00279339
-0.00276104
-0.00233475
-0.00150431
-0.000324975
0.00107857
0.00247867
0.00357022
0.00408857
-5.10429e-07
-5.07058e-05
-9.19035e-05
-0.000140311
-0.000243391
-0.00045848
-0.000840643
-0.00140403
-0.00209763
-0.00281119
-0.00341325
-0.00377334
-0.00380953
-0.00347557
-0.00277016
-0.00173509
-0.000453243
0.000912123
0.00209813
0.00271156
-0.000121613
-0.000194742
-0.000268089
-0.00035269
-0.000504317
-0.0007904
-0.00127483
-0.00196715
-0.00278976
-0.00360578
-0.004277
-0.00469654
-0.0048016
-0.00456056
-0.00398284
-0.00310451
-0.0019836
-0.0007319
0.000427882
0.00102397
-0.000319005
-0.000409805
-0.000515331
-0.000641317
-0.000844072
-0.00119153
-0.00174127
-0.00250865
-0.00340105
-0.00427257
-0.00498677
-0.0054491
-0.00560905
-0.00544927
-0.00498954
-0.00426595
-0.00332635
-0.0022466
-0.00119069
-0.000639463
-0.000570201
-0.000668676
-0.000797442
-0.000958123
-0.00120068
-0.00158994
-0.00216658
-0.00294961
-0.00385764
-0.0047454
-0.00547727
-0.0059636
-0.00616275
-0.00607007
-0.00571271
-0.00512833
-0.00435957
-0.00346365
-0.00259104
-0.00207404
-0.000843308
-0.000939922
-0.00107973
-0.00126235
-0.00152724
-0.0019265
-0.00250176
-0.00325387
-0.0041284
-0.00499666
-0.00572062
-0.00621331
-0.0064388
-0.00639961
-0.00612912
-0.00566646
-0.00504897
-0.00432169
-0.0036334
-0.00317287
-0.00110957
-0.00119689
-0.00133562
-0.00152497
-0.00179389
-0.00217886
-0.00272187
-0.00341252
-0.00421792
-0.0050321
-0.00572302
-0.00620529
-0.00644514
-0.00644887
-0.00625143
-0.00589168
-0.00540229
-0.00481945
-0.00429508
-0.00388634
-0.00134682
-0.0014209
-0.0015485
-0.00173089
-0.0019884
-0.002346
-0.0028338
-0.00344601
-0.00415682
-0.00488502
-0.00551949
-0.00597761
-0.00622237
-0.00626037
-0.00612316
-0.00584663
-0.0054625
-0.00498549
-0.00459049
-0.00422694
-0.0015474
-0.00160247
-0.00171218
-0.00187736
-0.00211181
-0.00243265
-0.00285681
-0.00338329
-0.00398917
-0.00461708
-0.00517957
-0.00560052
-0.00584024
-0.00590153
-0.00580986
-0.00559817
-0.00529459
-0.00487386
-0.00458717
-0.00421931
-0.00170438
-0.00174241
-0.00182853
-0.00196902
-0.00217329
-0.00245192
-0.00281406
-0.00325831
-0.00376606
-0.00429489
-0.00477957
-0.00515509
-0.00538126
-0.00545377
-0.00539053
-0.00521784
-0.00495841
-0.0045468
-0.00437039
-0.00390427
-0.00182124
-0.00184209
-0.00190191
-0.00201328
-0.00218414
-0.00242094
-0.00272791
-0.00310199
-0.00352712
-0.0039704
-0.00438248
-0.00471075
-0.00491735
-0.00499024
-0.0049375
-0.00477714
-0.00452567
-0.00407396
-0.00402779
-0.00331292
-0.00191037
-0.00190934
-0.00193963
-0.0020189
-0.00215557
-0.00235389
-0.0026149
-0.00293367
-0.00329515
-0.00367209
-0.00402538
-0.00431164
-0.00449592
-0.0045602
-0.00450377
-0.00433271
-0.00405991
-0.00353577
-0.00359238
-0.0024906
-0.00198258
-0.00195228
-0.00194887
-0.00199344
-0.00209627
-0.00226047
-0.00248473
-0.00276239
-0.00307861
-0.00340888
-0.00372002
-0.00397452
-0.00413919
-0.00419076
-0.00411839
-0.00391773
-0.00360018
-0.00297003
-0.00306069
-0.00145939
-0.00205073
-0.00197978
-0.00193558
-0.0019416
-0.00201032
-0.00214398
-0.00233922
-0.00258779
-0.0028744
-0.00317546
-0.00346081
-0.00369574
-0.00384721
-0.0038859
-0.0037922
-0.0035444
-0.00314274
-0.00232554
-0.00231661
-7.48941e-05
-0.00213724
-0.00199647
-0.0019
-0.00185882
-0.0018907
-0.00199596
-0.00216868
-0.00239903
-0.00267126
-0.00296056
-0.0032365
-0.0034636
-0.00360815
-0.00363343
-0.00351167
-0.00317543
-0.0026109
-0.00147016
-0.0010661
0.00257462
-0.00230098
-0.00202823
-0.00186411
-0.0017609
-0.00175553
-0.00183731
-0.00199534
-0.00221665
-0.00248386
-0.00277138
-0.00305007
-0.00327973
-0.00342226
-0.00342049
-0.00322509
-0.00272985
-0.00190231
-0.000208759
0.00138094
0.00846375
-0.00267978
-0.0021579
-0.00189755
-0.0017458
-0.00171695
-0.00178831
-0.00194217
-0.00216281
-0.00243225
-0.00272159
-0.00300756
-0.00323944
-0.00338891
-0.003369
-0.00313353
-0.00247704
-0.00116796
0.00153925
0.00572021
0.01833
-0.00290722
-0.000526841
-0.000316221
-0.000385026
-0.000468533
-0.000604298
-0.000825079
-0.00111904
-0.00145999
-0.00181746
-0.00215666
-0.00244345
-0.0026127
-0.00260626
-0.0022847
-0.00153003
0.00021717
0.00433693
0.0122815
0.0274742
)
;

boundaryField
{
    movingWall
    {
        type            zeroGradient;
    }
    fixedWalls
    {
        type            zeroGradient;
    }
    frontAndBack
    {
        type            empty;
    }
}


// ************************************************************************* //
