/*--------------------------------*- C++ -*----------------------------------*\
| =========                 |                                                 |
| \\      /  F ield         | OpenFOAM: The Open Source CFD Toolbox           |
|  \\    /   O peration     | Version:  5.0                                   |
|   \\  /    A nd           | Web:      www.OpenFOAM.org                      |
|    \\/     M anipulation  |                                                 |
\*---------------------------------------------------------------------------*/
FoamFile
{
    version     2.0;
    format      ascii;
    class       surfaceScalarField;
    location    "2.5";
    object      phi;
}
// * * * * * * * * * * * * * * * * * * * * * * * * * * * * * * * * * * * * * //

dimensions      [0 3 -1 0 0 0 0];

internalField   nonuniform List<scalar> 
760
(
-8.61524e-09
8.61018e-09
-1.02001e-07
9.33859e-08
-2.4262e-07
1.40619e-07
-4.05255e-07
1.62634e-07
-6.09954e-07
2.04699e-07
-9.24179e-07
3.14225e-07
-1.44063e-06
5.1645e-07
-2.19436e-06
7.53731e-07
-3.07603e-06
8.81673e-07
-3.88518e-06
8.09144e-07
-4.49325e-06
6.08077e-07
-4.86611e-06
3.72857e-07
-4.99894e-06
1.32831e-07
-4.85491e-06
-1.44028e-07
-4.44981e-06
-4.05108e-07
-3.77156e-06
-6.78243e-07
-2.81947e-06
-9.52097e-07
-1.68164e-06
-1.13783e-06
-5.80777e-07
-1.10086e-06
-5.80777e-07
-1.34717e-07
1.43327e-07
-3.91565e-07
3.50234e-07
-7.22302e-07
4.71355e-07
-1.11636e-06
5.56695e-07
-1.59226e-06
6.80601e-07
-2.17879e-06
9.00752e-07
-2.87108e-06
1.20874e-06
-3.58787e-06
1.47051e-06
-4.22609e-06
1.5199e-06
-4.74428e-06
1.32733e-06
-5.13121e-06
9.95008e-07
-5.36751e-06
6.09156e-07
-5.40847e-06
1.73796e-07
-5.26086e-06
-2.91647e-07
-4.90048e-06
-7.65488e-07
-4.31351e-06
-1.26521e-06
-3.48943e-06
-1.77618e-06
-2.41121e-06
-2.21605e-06
-1.12899e-06
-2.38308e-06
-1.70977e-06
-2.47583e-07
3.9091e-07
-5.85087e-07
6.87738e-07
-9.81011e-07
8.6728e-07
-1.44889e-06
1.02457e-06
-1.99452e-06
1.22624e-06
-2.60358e-06
1.50982e-06
-3.22637e-06
1.83153e-06
-3.79437e-06
2.03851e-06
-4.26579e-06
1.99132e-06
-4.63893e-06
1.70047e-06
-4.90466e-06
1.26074e-06
-5.04267e-06
7.47166e-07
-5.0381e-06
1.69227e-07
-4.88842e-06
-4.41321e-07
-4.57828e-06
-1.07563e-06
-4.09337e-06
-1.75012e-06
-3.42048e-06
-2.44907e-06
-2.52297e-06
-3.11356e-06
-1.37098e-06
-3.53506e-06
-3.08075e-06
-3.04548e-07
6.95458e-07
-6.64139e-07
1.04733e-06
-1.06141e-06
1.26455e-06
-1.51326e-06
1.47642e-06
-2.01838e-06
1.73136e-06
-2.54883e-06
2.04026e-06
-3.05341e-06
2.3361e-06
-3.48865e-06
2.47375e-06
-3.8417e-06
2.34436e-06
-4.11109e-06
1.96987e-06
-4.29037e-06
1.44001e-06
-4.36437e-06
8.21164e-07
-4.33317e-06
1.38026e-07
-4.19557e-06
-5.78921e-07
-3.93978e-06
-1.33142e-06
-3.55752e-06
-2.13237e-06
-3.02451e-06
-2.98209e-06
-2.29385e-06
-3.84421e-06
-1.29358e-06
-4.53534e-06
-4.37433e-06
-3.08638e-07
1.0041e-06
-6.50439e-07
1.38913e-06
-1.0097e-06
1.62381e-06
-1.39845e-06
1.86517e-06
-1.81246e-06
2.14537e-06
-2.22724e-06
2.45505e-06
-2.60549e-06
2.71435e-06
-2.92329e-06
2.79156e-06
-3.17787e-06
2.59894e-06
-3.36932e-06
2.16132e-06
-3.48915e-06
1.55984e-06
-3.52832e-06
8.60332e-07
-3.48952e-06
9.92281e-08
-3.37331e-06
-6.95139e-07
-3.17805e-06
-1.52668e-06
-2.89753e-06
-2.41289e-06
-2.50532e-06
-3.37429e-06
-1.94764e-06
-4.4019e-06
-1.1259e-06
-5.35707e-06
-5.50023e-06
-2.75263e-07
1.27936e-06
-5.72272e-07
1.68614e-06
-8.70426e-07
1.92197e-06
-1.17447e-06
2.1692e-06
-1.4788e-06
2.44971e-06
-1.76906e-06
2.74531e-06
-2.02467e-06
2.96997e-06
-2.23719e-06
3.00407e-06
-2.41081e-06
2.77256e-06
-2.54315e-06
2.29366e-06
-2.62451e-06
1.64121e-06
-2.64876e-06
8.84582e-07
-2.61891e-06
6.93823e-08
-2.53679e-06
-7.77266e-07
-2.40605e-06
-1.65742e-06
-2.22163e-06
-2.59731e-06
-1.9568e-06
-3.63912e-06
-1.5567e-06
-4.802e-06
-9.33496e-07
-5.98027e-06
-6.43373e-06
-2.20642e-07
1.5e-06
-4.57898e-07
1.92339e-06
-6.85018e-07
2.14909e-06
-8.99578e-07
2.38376e-06
-1.09591e-06
2.64604e-06
-1.2663e-06
2.9157e-06
-1.40034e-06
3.10401e-06
-1.51203e-06
3.11577e-06
-1.6143e-06
2.87483e-06
-1.69989e-06
2.37925e-06
-1.75925e-06
1.70057e-06
-1.78529e-06
9.10621e-07
-1.7788e-06
6.28876e-08
-1.74301e-06
-8.13052e-07
-1.68301e-06
-1.71742e-06
-1.59497e-06
-2.68535e-06
-1.45681e-06
-3.77729e-06
-1.21294e-06
-5.04587e-06
-7.55264e-07
-6.43795e-06
-7.18899e-06
-1.56857e-07
1.65686e-06
-3.28614e-07
2.09515e-06
-4.84173e-07
2.30465e-06
-6.14939e-07
2.51453e-06
-7.13593e-07
2.74469e-06
-7.73842e-07
2.97594e-06
-8.00604e-07
3.13077e-06
-8.17293e-07
3.13246e-06
-8.46533e-07
2.90407e-06
-8.88905e-07
2.42162e-06
-9.33482e-07
1.74515e-06
-9.70345e-07
9.47484e-07
-9.97217e-07
8.97602e-08
-1.0157e-06
-7.94572e-07
-1.03008e-06
-1.70304e-06
-1.03537e-06
-2.68006e-06
-1.00901e-06
-3.80364e-06
-8.97059e-07
-5.15782e-06
-6.14426e-07
-6.72058e-06
-7.80342e-06
-9.23861e-08
1.74925e-06
-1.9986e-07
2.20262e-06
-2.8924e-07
2.39403e-06
-3.47105e-07
2.5724e-06
-3.64273e-07
2.76186e-06
-3.3463e-07
2.9463e-06
-2.72971e-07
3.06911e-06
-2.03427e-07
3.06291e-06
-1.58661e-07
2.85931e-06
-1.5292e-07
2.41588e-06
-1.79431e-07
1.77166e-06
-2.27976e-07
9.96029e-07
-2.9165e-07
1.53434e-07
-3.6814e-07
-7.18081e-07
-4.58216e-07
-1.61296e-06
-5.54277e-07
-2.584e-06
-6.31724e-07
-3.7262e-06
-6.34546e-07
-5.155e-06
-4.8233e-07
-6.8728e-06
-8.28575e-06
-3.38541e-08
1.7831e-06
-8.25361e-08
2.25131e-06
-1.14233e-07
2.42572e-06
-1.12403e-07
2.57057e-06
-6.70991e-08
2.71655e-06
2.73248e-08
2.85188e-06
1.57824e-07
2.93861e-06
3.00257e-07
2.92048e-06
4.17628e-07
2.74194e-06
4.77157e-07
2.35635e-06
4.7377e-07
1.77505e-06
4.1743e-07
1.05237e-06
3.20123e-07
2.50741e-07
1.88785e-07
-5.86744e-07
2.88094e-08
-1.45299e-06
-1.51343e-07
-2.40385e-06
-3.23286e-07
-3.55425e-06
-4.27994e-07
-5.05029e-06
-3.93115e-07
-6.90767e-06
-8.67886e-06
1.7033e-08
1.76607e-06
1.62144e-08
2.25213e-06
3.26484e-08
2.40929e-06
8.11076e-08
2.52211e-06
1.71459e-07
2.6262e-06
3.08094e-07
2.71524e-06
4.8355e-07
2.76315e-06
6.74473e-07
2.72956e-06
8.45864e-07
2.57055e-06
9.57706e-07
2.24451e-06
9.88358e-07
1.74439e-06
9.3801e-07
1.10272e-06
8.19084e-07
3.69667e-07
6.43963e-07
-4.11622e-07
4.25309e-07
-1.23433e-06
1.77596e-07
-2.15614e-06
-6.98322e-08
-3.30683e-06
-2.60095e-07
-4.86003e-06
-3.17192e-07
-6.85058e-06
-8.99605e-06
5.00012e-08
1.71607e-06
9.09412e-08
2.21119e-06
1.4613e-07
2.3541e-06
2.31133e-07
2.4371e-06
3.54204e-07
2.50313e-06
5.18083e-07
2.55136e-06
7.16773e-07
2.56446e-06
9.32118e-07
2.51421e-06
1.13394e-06
2.36873e-06
1.2833e-06
2.09515e-06
1.34898e-06
1.67871e-06
1.31816e-06
1.13354e-06
1.19599e-06
4.91839e-07
9.96856e-07
-2.12492e-07
7.39256e-07
-9.76732e-07
4.40081e-07
-1.85696e-06
1.27815e-07
-2.99456e-06
-1.35248e-07
-4.59697e-06
-2.73944e-07
-6.71188e-06
-9.27e-06
7.25348e-08
1.64353e-06
1.41869e-07
2.14185e-06
2.27217e-07
2.26875e-06
3.4026e-07
2.32406e-06
4.86973e-07
2.35642e-06
6.68137e-07
2.3702e-06
8.77945e-07
2.35466e-06
1.10158e-06
2.29057e-06
1.31486e-06
2.15545e-06
1.48417e-06
1.92584e-06
1.57642e-06
1.58646e-06
1.57052e-06
1.13944e-06
1.46204e-06
6.00318e-07
1.26055e-06
-1.09983e-08
9.86022e-07
-7.02203e-07
6.55451e-07
-1.52639e-06
2.93678e-07
-2.63279e-06
-3.6133e-08
-4.26716e-06
-2.27397e-07
-6.52062e-06
-9.4974e-06
7.8382e-08
1.56515e-06
1.66255e-07
2.05398e-06
2.74483e-07
2.16053e-06
4.10026e-07
2.18852e-06
5.75512e-07
2.19093e-06
7.69491e-07
2.17622e-06
9.85697e-07
2.13845e-06
1.2112e-06
2.06507e-06
1.4262e-06
1.94045e-06
1.60368e-06
1.74837e-06
1.71377e-06
1.47637e-06
1.73261e-06
1.12059e-06
1.64801e-06
6.84921e-07
1.46465e-06
1.72364e-07
1.1927e-06
-4.3025e-07
8.49735e-07
-1.18343e-06
4.56805e-07
-2.23986e-06
8.13709e-08
-3.89172e-06
-1.59927e-07
-6.27932e-06
-9.65732e-06
6.21231e-08
1.50303e-06
1.58236e-07
1.95787e-06
2.84694e-07
2.03407e-06
4.40417e-07
2.03279e-06
6.24001e-07
2.00735e-06
8.31446e-07
1.96877e-06
1.05538e-06
1.91452e-06
1.284e-06
1.83644e-06
1.50062e-06
1.72383e-06
1.6836e-06
1.56538e-06
1.80819e-06
1.35178e-06
1.85186e-06
1.07692e-06
1.79891e-06
7.37869e-07
1.64468e-06
3.26596e-07
1.39224e-06
-1.77813e-07
1.05293e-06
-8.44111e-07
6.44989e-07
-1.83192e-06
2.43755e-07
-3.49049e-06
-1.69555e-08
-6.01861e-06
-9.67428e-06
1.18385e-08
1.49119e-06
1.09221e-07
1.86048e-06
2.53082e-07
1.89021e-06
4.31947e-07
1.85393e-06
6.38373e-07
1.80092e-06
8.65216e-07
1.74193e-06
1.10385e-06
1.67588e-06
1.34311e-06
1.59718e-06
1.56874e-06
1.4982e-06
1.76363e-06
1.3705e-06
1.90769e-06
1.20771e-06
1.98147e-06
1.00314e-06
1.96769e-06
7.51646e-07
1.85522e-06
4.3907e-07
1.63822e-06
3.91864e-08
1.32187e-06
-5.27765e-07
9.10854e-07
-1.4209e-06
4.69521e-07
-3.04916e-06
1.22022e-07
-5.67111e-06
-9.55226e-06
-9.53155e-08
1.5865e-06
-8.01102e-10
1.76597e-06
1.72758e-07
1.71665e-06
3.91999e-07
1.63469e-06
6.37822e-07
1.5551e-06
9.00386e-07
1.47937e-06
1.17074e-06
1.40553e-06
1.43914e-06
1.32879e-06
1.69364e-06
1.24369e-06
1.92019e-06
1.14395e-06
2.10119e-06
1.02671e-06
2.22021e-06
8.8413e-07
2.25948e-06
7.12376e-07
2.20788e-06
4.90675e-07
2.04632e-06
2.00742e-07
1.77477e-06
-2.56213e-07
1.36416e-06
-1.01029e-06
8.49001e-07
-2.534e-06
3.28268e-07
-5.15038e-06
-9.22399e-06
-2.98281e-07
1.88478e-06
-1.37247e-07
1.60494e-06
1.42367e-07
1.43703e-06
4.53245e-07
1.32381e-06
7.79375e-07
1.22897e-06
1.11447e-06
1.14428e-06
1.4513e-06
1.0687e-06
1.78129e-06
9.98798e-07
2.09312e-06
9.31852e-07
2.37714e-06
8.5994e-07
2.61988e-06
7.83969e-07
2.81221e-06
6.918e-07
2.9354e-06
5.89186e-07
2.97685e-06
4.49227e-07
2.90872e-06
2.68868e-07
2.72629e-06
-7.37794e-08
2.31281e-06
-5.96812e-07
1.67315e-06
-1.89434e-06
7.8495e-07
-4.26218e-06
-8.43904e-06
-2.80553e-07
2.16534e-06
9.51361e-08
1.22925e-06
5.69724e-07
9.62446e-07
1.05254e-06
8.40987e-07
1.52952e-06
7.52001e-07
1.99855e-06
6.75246e-07
2.45711e-06
6.10135e-07
2.89935e-06
5.56563e-07
3.31635e-06
5.14852e-07
3.70692e-06
4.69368e-07
4.05376e-06
4.37129e-07
4.36451e-06
3.81044e-07
4.60472e-06
3.48976e-07
4.79335e-06
2.60602e-07
4.85382e-06
2.08394e-07
4.7596e-06
2.04396e-08
4.45311e-06
-2.90317e-07
3.72391e-06
-1.16514e-06
2.15401e-06
-2.69228e-06
-6.28503e-06
2.16534e-06
3.39458e-06
4.35703e-06
5.19802e-06
5.95002e-06
6.62526e-06
7.2354e-06
7.79196e-06
8.30681e-06
8.77618e-06
9.21331e-06
9.59435e-06
9.94333e-06
1.02039e-05
1.04123e-05
1.04328e-05
1.01424e-05
8.97731e-06
6.28503e-06
)
;

boundaryField
{
    movingWall
    {
        type            calculated;
        value           uniform 0;
    }
    fixedWalls
    {
        type            calculated;
        value           uniform 0;
    }
    frontAndBack
    {
        type            empty;
        value           nonuniform 0();
    }
}


// ************************************************************************* //
