/*--------------------------------*- C++ -*----------------------------------*\
| =========                 |                                                 |
| \\      /  F ield         | OpenFOAM: The Open Source CFD Toolbox           |
|  \\    /   O peration     | Version:  5.0                                   |
|   \\  /    A nd           | Web:      www.OpenFOAM.org                      |
|    \\/     M anipulation  |                                                 |
\*---------------------------------------------------------------------------*/
FoamFile
{
    version     2.0;
    format      ascii;
    class       volVectorField;
    location    "2.5";
    object      U;
}
// * * * * * * * * * * * * * * * * * * * * * * * * * * * * * * * * * * * * * //

dimensions      [0 1 -1 0 0 0 0];

internalField   nonuniform List<vector> 
400
(
(0.000285883 -0.000452722 0)
(-0.000689935 0.000146758 0)
(-0.00325984 0.000385729 0)
(-0.00632353 0.000352435 0)
(-0.00987063 0.000408781 0)
(-0.0146942 0.00110626 0)
(-0.0222919 0.00309397 0)
(-0.034594 0.00639562 0)
(-0.0523175 0.00918739 0)
(-0.0715096 0.00907011 0)
(-0.0865513 0.00660419 0)
(-0.0958233 0.00405069 0)
(-0.0999125 0.00155547 0)
(-0.0998762 -0.00223364 0)
(-0.0932316 -0.00531138 0)
(-0.0819498 -0.00807531 0)
(-0.065315 -0.0105761 0)
(-0.0447056 -0.011257 0)
(-0.0217667 -0.00889276 0)
(-0.00363439 -0.00278594 0)
(-0.000859885 0.00089444 0)
(-0.00472895 0.00393592 0)
(-0.0107292 0.00572181 0)
(-0.0179267 0.0067251 0)
(-0.0264722 0.00844173 0)
(-0.0370119 0.0121785 0)
(-0.0499909 0.018089 0)
(-0.0644719 0.0235991 0)
(-0.0787964 0.0251111 0)
(-0.0912449 0.0220457 0)
(-0.100348 0.0167063 0)
(-0.106347 0.0101348 0)
(-0.109128 0.00306381 0)
(-0.107723 -0.0044511 0)
(-0.102065 -0.0123956 0)
(-0.0922444 -0.0208065 0)
(-0.0778538 -0.0291287 0)
(-0.0592529 -0.0349831 0)
(-0.0361795 -0.034196 0)
(-0.0107245 -0.0186728 0)
(-0.00222922 0.00510631 0)
(-0.00803245 0.0103486 0)
(-0.0151764 0.0134267 0)
(-0.0237478 0.0159253 0)
(-0.0338201 0.0192976 0)
(-0.045504 0.0245339 0)
(-0.0582735 0.0310302 0)
(-0.0707203 0.0357094 0)
(-0.0815453 0.0354573 0)
(-0.0901245 0.0303123 0)
(-0.0965525 0.0222584 0)
(-0.100581 0.0132861 0)
(-0.101713 0.0032213 0)
(-0.0999664 -0.00784707 0)
(-0.0952158 -0.0192496 0)
(-0.0870043 -0.0313125 0)
(-0.0751277 -0.0437302 0)
(-0.059534 -0.0551967 0)
(-0.0392836 -0.0610106 0)
(-0.0161289 -0.0487641 0)
(-0.00304313 0.0108119 0)
(-0.00960855 0.0173511 0)
(-0.0168277 0.0213693 0)
(-0.0252542 0.0251356 0)
(-0.034815 0.0297817 0)
(-0.0453647 0.0357615 0)
(-0.0562034 0.0419117 0)
(-0.0661023 0.0452708 0)
(-0.074225 0.0434106 0)
(-0.0804825 0.0366674 0)
(-0.0849343 0.0269571 0)
(-0.0873583 0.0155376 0)
(-0.0875807 0.00287812 0)
(-0.0858004 -0.01067 0)
(-0.0817727 -0.024872 0)
(-0.0752938 -0.039943 0)
(-0.0659675 -0.0557392 0)
(-0.0533108 -0.0713144 0)
(-0.0358868 -0.0829079 0)
(-0.0153609 -0.0773144 0)
(-0.00319752 0.0169733 0)
(-0.00967001 0.0244223 0)
(-0.0162868 0.0290099 0)
(-0.0237166 0.0336184 0)
(-0.0317514 0.0390353 0)
(-0.0401971 0.0452432 0)
(-0.0485602 0.0507532 0)
(-0.0559683 0.0528045 0)
(-0.0618597 0.0494981 0)
(-0.0662782 0.0413281 0)
(-0.0693 0.0299641 0)
(-0.0707582 0.0166893 0)
(-0.0706067 0.00219815 0)
(-0.0689565 -0.0131144 0)
(-0.0657744 -0.0291729 0)
(-0.0610152 -0.0462871 0)
(-0.0542353 -0.0646907 0)
(-0.044661 -0.0839079 0)
(-0.0306233 -0.100741 0)
(-0.0140268 -0.101242 0)
(-0.00287285 0.0228442 0)
(-0.00864367 0.0308741 0)
(-0.0142378 0.0356604 0)
(-0.0202263 0.0406326 0)
(-0.0263236 0.0463128 0)
(-0.0323616 0.0523737 0)
(-0.0381216 0.0571845 0)
(-0.0432062 0.0582211 0)
(-0.0471947 0.0538702 0)
(-0.0502076 0.0446332 0)
(-0.0522236 0.0320023 0)
(-0.0531399 0.0173415 0)
(-0.0529466 0.00150748 0)
(-0.0517298 -0.0150411 0)
(-0.0495503 -0.0322986 0)
(-0.0464339 -0.0507214 0)
(-0.0420174 -0.0709954 0)
(-0.0353537 -0.0932661 0)
(-0.0246356 -0.114863 0)
(-0.0123059 -0.121136 0)
(-0.0022768 0.0278538 0)
(-0.00698266 0.0362745 0)
(-0.0113533 0.0409672 0)
(-0.0157545 0.045858 0)
(-0.0198616 0.0513472 0)
(-0.0236171 0.0570396 0)
(-0.0268548 0.0611972 0)
(-0.0294387 0.0615951 0)
(-0.0318356 0.0567704 0)
(-0.0336469 0.0468983 0)
(-0.0349844 0.033462 0)
(-0.0357033 0.0178826 0)
(-0.035771 0.00115734 0)
(-0.0352587 -0.0161718 0)
(-0.03427 -0.0341209 0)
(-0.0328297 -0.0533068 0)
(-0.0306713 -0.0747685 0)
(-0.0268379 -0.0992232 0)
(-0.0200915 -0.125383 0)
(-0.00913217 -0.137515 0)
(-0.00156603 0.0316827 0)
(-0.00503864 0.040406 0)
(-0.00813681 0.0448077 0)
(-0.0110062 0.0493051 0)
(-0.0133105 0.0542935 0)
(-0.0149538 0.0594009 0)
(-0.0159029 0.0628128 0)
(-0.0163206 0.0629506 0)
(-0.0169906 0.058209 0)
(-0.0176676 0.0482969 0)
(-0.0184565 0.0345944 0)
(-0.0191563 0.0185806 0)
(-0.0196789 0.00139877 0)
(-0.0200567 -0.0162941 0)
(-0.020378 -0.0345115 0)
(-0.0206377 -0.0540487 0)
(-0.0205529 -0.0762797 0)
(-0.019117 -0.102617 0)
(-0.0158302 -0.132309 0)
(-0.00757305 -0.150737 0)
(-0.000845318 0.0342058 0)
(-0.00306619 0.043215 0)
(-0.00495637 0.0472589 0)
(-0.0064546 0.051176 0)
(-0.0072384 0.0554092 0)
(-0.00711273 0.0596043 0)
(-0.00621134 0.0624418 0)
(-0.00485544 0.0624495 0)
(-0.00369271 0.0581492 0)
(-0.00314235 0.0487889 0)
(-0.00333739 0.0354281 0)
(-0.00403778 0.0195304 0)
(-0.00508025 0.00236057 0)
(-0.00643198 -0.0152849 0)
(-0.00811512 -0.0334006 0)
(-0.0100576 -0.0529502 0)
(-0.0119411 -0.0756523 0)
(-0.0126944 -0.103537 0)
(-0.0123604 -0.136425 0)
(-0.00569578 -0.161309 0)
(-0.00021587 0.0355619 0)
(-0.00124677 0.0447835 0)
(-0.00206408 0.0484526 0)
(-0.00240259 0.0516957 0)
(-0.00197435 0.0550653 0)
(-0.000588613 0.0582707 0)
(0.00169154 0.0604217 0)
(0.00450761 0.0602409 0)
(0.00717098 0.0565004 0)
(0.00900486 0.0482303 0)
(0.00961517 0.0358567 0)
(0.0090822 0.0206975 0)
(0.00761137 0.00406052 0)
(0.00533639 -0.0131293 0)
(0.00236483 -0.0308149 0)
(-0.00112716 -0.0500971 0)
(-0.00485627 -0.0730814 0)
(-0.00747052 -0.102365 0)
(-0.00987261 -0.138065 0)
(-0.00461933 -0.169854 0)
(0.000405204 0.035626 0)
(0.000267453 0.0452568 0)
(0.000375901 0.0485752 0)
(0.000977797 0.0511486 0)
(0.00233721 0.0536444 0)
(0.00460322 0.0558832 0)
(0.00775474 0.0572423 0)
(0.0114911 0.0567786 0)
(0.0152152 0.053477 0)
(0.0181511 0.0464314 0)
(0.0196753 0.0356051 0)
(0.0195645 0.0218446 0)
(0.017924 0.00632356 0)
(0.0149602 -0.00998334 0)
(0.0109557 -0.0269446 0)
(0.00618595 -0.0457342 0)
(0.00082487 -0.0688051 0)
(-0.003147 -0.0993246 0)
(-0.00794784 -0.137723 0)
(-0.00337413 -0.17682 0)
(0.000655876 0.035039 0)
(0.00140041 0.0448306 0)
(0.00227157 0.0478253 0)
(0.003624 0.0497734 0)
(0.00567722 0.05146 0)
(0.008542 0.0528126 0)
(0.0121943 0.0534078 0)
(0.0164002 0.0525781 0)
(0.0206827 0.04958 0)
(0.0243281 0.0436533 0)
(0.0266076 0.0345388 0)
(0.0270684 0.0226478 0)
(0.0255891 0.00879677 0)
(0.022328 -0.00617627 0)
(0.0176771 -0.0221086 0)
(0.0119983 -0.0401941 0)
(0.00534781 -0.0631401 0)
(0.000531771 -0.094719 0)
(-0.00691881 -0.135754 0)
(-0.00229863 -0.182642 0)
(0.000859147 0.0337613 0)
(0.00215383 0.0436918 0)
(0.0035991 0.0463847 0)
(0.00553407 0.0477582 0)
(0.00811231 0.0487226 0)
(0.0113924 0.049314 0)
(0.0153289 0.0492593 0)
(0.0197217 0.0480965 0)
(0.0241894 0.0452986 0)
(0.0281545 0.0403141 0)
(0.0309137 0.0328162 0)
(0.0319015 0.0229339 0)
(0.0308209 0.0111097 0)
(0.0276817 -0.00214515 0)
(0.0228334 -0.0167283 0)
(0.0166809 -0.0338345 0)
(0.00910746 -0.0563494 0)
(0.00402116 -0.0887565 0)
(-0.00628792 -0.132509 0)
(-0.000553433 -0.18761 0)
(0.000866481 0.0321947 0)
(0.00244505 0.0420677 0)
(0.00431512 0.0444147 0)
(0.00671231 0.0452465 0)
(0.00971323 0.0455792 0)
(0.013316 0.0455435 0)
(0.0174466 0.0449785 0)
(0.0219181 0.0435771 0)
(0.0264074 0.0409677 0)
(0.0304529 0.0367698 0)
(0.0334669 0.0307048 0)
(0.0348826 0.022732 0)
(0.034302 0.0130185 0)
(0.0316115 0.00173991 0)
(0.0269893 -0.0112249 0)
(0.020777 -0.0270705 0)
(0.0126154 -0.0487793 0)
(0.00765195 -0.0817365 0)
(-0.0059463 -0.128336 0)
(0.00205748 -0.192009 0)
(0.000584998 0.0306857 0)
(0.00212667 0.0401809 0)
(0.00432706 0.0420463 0)
(0.00712113 0.0423191 0)
(0.0105139 0.0420776 0)
(0.0144427 0.0415207 0)
(0.0187886 0.0405691 0)
(0.0233639 0.0390264 0)
(0.0278884 0.0366384 0)
(0.0319829 0.0331405 0)
(0.0351759 0.028321 0)
(0.0369744 0.0220697 0)
(0.0369668 0.014374 0)
(0.0349241 0.00515819 0)
(0.030831 -0.00593839 0)
(0.0249058 -0.0202118 0)
(0.0164046 -0.0408345 0)
(0.0120191 -0.0742036 0)
(-0.00531793 -0.123557 0)
(0.00619791 -0.195996 0)
(-0.000386431 0.0298625 0)
(0.000998226 0.038217 0)
(0.00348711 0.03932 0)
(0.00671212 0.0389624 0)
(0.0105796 0.0381773 0)
(0.0149414 0.0371879 0)
(0.0196322 0.0359661 0)
(0.0244564 0.0343819 0)
(0.0291643 0.0322639 0)
(0.033447 0.0294226 0)
(0.0369297 0.0256962 0)
(0.0392068 0.0209488 0)
(0.039891 0.0150807 0)
(0.0387031 0.00784625 0)
(0.0353783 -0.00124055 0)
(0.0301412 -0.0137333 0)
(0.0216096 -0.0328235 0)
(0.0181838 -0.0661178 0)
(-0.00405358 -0.118972 0)
(0.0121089 -0.19894 0)
(-0.00174647 0.0305703 0)
(-0.00152727 0.0365141 0)
(0.00151702 0.0364445 0)
(0.00549931 0.0352902 0)
(0.010182 0.0339586 0)
(0.0153026 0.0325972 0)
(0.0206676 0.0311813 0)
(0.0260889 0.0296099 0)
(0.0313593 0.027743 0)
(0.0362379 0.0254422 0)
(0.0403869 0.0226349 0)
(0.0434759 0.0191897 0)
(0.0451199 0.0149896 0)
(0.0450872 0.00965563 0)
(0.0428448 0.00266017 0)
(0.0389029 -0.00775031 0)
(0.0304793 -0.0245387 0)
(0.0282183 -0.0568756 0)
(-0.00130014 -0.111748 0)
(0.0208195 -0.196873 0)
(-0.0048903 0.0342691 0)
(-0.00575541 0.0347955 0)
(3.3912e-05 0.0327256 0)
(0.00583232 0.0306902 0)
(0.012233 0.0288682 0)
(0.0188831 0.0272138 0)
(0.0256282 0.0256732 0)
(0.032333 0.0241627 0)
(0.038781 0.0226096 0)
(0.044784 0.020888 0)
(0.0500735 0.0189708 0)
(0.0544957 0.0166649 0)
(0.0576454 0.0140051 0)
(0.0594574 0.0105283 0)
(0.0589705 0.00600152 0)
(0.0571723 -0.00167339 0)
(0.0493323 -0.0151236 0)
(0.0471026 -0.0449039 0)
(0.00836537 -0.0981294 0)
(0.0363157 -0.178735 0)
(-0.00605106 0.038349 0)
(-0.00333825 0.0233421 0)
(0.00671142 0.0194487 0)
(0.0161686 0.0177161 0)
(0.0257826 0.0161572 0)
(0.0352862 0.0146784 0)
(0.044563 0.0134262 0)
(0.0536155 0.0123663 0)
(0.0621837 0.011453 0)
(0.0703272 0.0105128 0)
(0.0776322 0.00956561 0)
(0.0843318 0.0083988 0)
(0.089693 0.00710129 0)
(0.0941824 0.0052464 0)
(0.0963173 0.00287128 0)
(0.0965679 -0.0023023 0)
(0.0904456 -0.0106123 0)
(0.0872914 -0.0331774 0)
(0.0443011 -0.0739544 0)
(0.069575 -0.136132 0)
(0.0464378 0.0480888 0)
(0.0519574 0.0336227 0)
(0.0752529 0.0259933 0)
(0.0962598 0.0219141 0)
(0.112285 0.0193096 0)
(0.126276 0.0172901 0)
(0.138618 0.0155498 0)
(0.150482 0.014108 0)
(0.160816 0.0130429 0)
(0.171022 0.0118516 0)
(0.179569 0.0112824 0)
(0.188102 0.00989037 0)
(0.194868 0.00975159 0)
(0.201117 0.00767649 0)
(0.205626 0.00781826 0)
(0.207982 0.00389571 0)
(0.205001 0.00176218 0)
(0.19568 -0.00618426 0)
(0.151931 -0.0167027 0)
(0.142961 -0.0888063 0)
)
;

boundaryField
{
    movingWall
    {
        type            fixedValue;
        value           uniform (1 0 0);
    }
    fixedWalls
    {
        type            noSlip;
    }
    frontAndBack
    {
        type            empty;
    }
}


// ************************************************************************* //
