/*--------------------------------*- C++ -*----------------------------------*\
  =========                 |
  \\      /  F ield         | OpenFOAM: The Open Source CFD Toolbox
   \\    /   O peration     | Website:  https://openfoam.org
    \\  /    A nd           | Version:  6
     \\/     M anipulation  |
\*---------------------------------------------------------------------------*/
FoamFile
{
    version     2.0;
    format      ascii;
    class       volScalarField;
    location    "0.4";
    object      p;
}
// * * * * * * * * * * * * * * * * * * * * * * * * * * * * * * * * * * * * * //

dimensions      [0 2 -2 0 0 0 0];

internalField   nonuniform List<scalar> 
400
(
-1.83433e-06
-0.00288011
-0.00826761
-0.014495
-0.0195697
-0.0216371
-0.0191152
-0.0108592
0.00361981
0.0238413
0.00285925
-4.29502e-05
-0.00431489
-0.00896693
-0.0126858
-0.0140093
-0.0115867
-0.00438346
0.0080961
0.0255092
0.00834254
0.00414295
-0.000294152
-0.00438297
-0.00742118
-0.00831444
-0.00597401
0.00046483
0.0114451
0.0267092
0.0151062
0.008875
0.0033296
-0.00107875
-0.00412227
-0.00498157
-0.00278262
0.00317202
0.0132479
0.0272257
0.0215614
0.0130328
0.00591413
0.000707168
-0.00272777
-0.00377603
-0.00172449
0.00398242
0.0136328
0.0270238
0.0261072
0.0151638
0.00620333
-8.40314e-05
-0.00411118
-0.0054092
-0.00337587
0.00243281
0.0122353
0.0258321
0.0269433
0.0134613
0.00247611
-0.00503448
-0.00969081
-0.0111244
-0.0088014
-0.00235952
0.00836367
0.0231686
0.021766
0.00553196
-0.00763069
-0.0163709
-0.0214909
-0.0227051
-0.0195284
-0.0116641
0.00100661
0.0182965
0.00729419
-0.0120519
-0.0275406
-0.0373454
-0.0424722
-0.0427473
-0.0377614
-0.0273039
-0.0112992
0.010112
-0.0215006
-0.0445428
-0.0624664
-0.0728433
-0.0769922
-0.0749754
-0.0665798
-0.0517719
-0.0305422
-0.00291305
0.0469784
0.0677913
0.0829858
0.091713
0.0943345
0.0920787
0.0867094
0.0802505
0.074787
0.0719626
0.0454552
0.0633718
0.0764578
0.0840629
0.0865788
0.0851105
0.0811569
0.0763166
0.0719859
0.0691523
0.0442124
0.0599629
0.0715327
0.078369
0.0808098
0.0797808
0.0765093
0.0722239
0.0677253
0.0636171
0.0432959
0.0578285
0.0685903
0.0750261
0.0773681
0.0763666
0.0730455
0.0683832
0.0627396
0.0566044
0.0424891
0.0565918
0.0671512
0.0735375
0.0758467
0.0746713
0.0708949
0.0653349
0.0580349
0.0495676
0.0416201
0.0562022
0.0673124
0.0741742
0.0767111
0.0753672
0.0709384
0.0641575
0.0548651
0.0438759
0.0404442
0.056679
0.0693751
0.0775261
0.08083
0.0795736
0.0745001
0.0663182
0.05475
0.0409857
0.0385372
0.0579617
0.0736902
0.0843845
0.0894281
0.0888969
0.0834751
0.0738721
0.0597323
0.042762
0.0352005
0.0598494
0.0806585
0.0958338
0.104291
0.105754
0.100756
0.0899612
0.0729209
0.0520487
0.0294074
0.061958
0.0907377
0.113369
0.128058
0.133887
0.130979
0.11976
0.0995493
0.0737249
-0.0707439
-0.0983287
-0.118521
-0.128246
-0.129468
-0.122784
-0.108453
-0.0868151
-0.0579807
-0.0217357
-0.143866
-0.176989
-0.198588
-0.205104
-0.199957
-0.184926
-0.161236
-0.129899
-0.0912126
-0.0445548
-0.243751
-0.283479
-0.304156
-0.302511
-0.285248
-0.256544
-0.219264
-0.175356
-0.125236
-0.0675751
-0.379503
-0.426429
-0.440377
-0.421205
-0.382582
-0.332789
-0.276876
-0.217648
-0.155225
-0.0870515
-0.570343
-0.620942
-0.613762
-0.56004
-0.486335
-0.406317
-0.326838
-0.250601
-0.176403
-0.0996527
-0.856872
-0.891532
-0.830115
-0.713555
-0.586787
-0.467317
-0.361234
-0.26869
-0.185352
-0.103613
-1.32001
-1.27202
-1.09003
-0.870034
-0.670216
-0.504752
-0.37314
-0.268531
-0.181076
-0.0993624
-2.13993
-1.79918
-1.36962
-0.998973
-0.712751
-0.504084
-0.355891
-0.248428
-0.164457
-0.0889595
-3.775
-2.47515
-1.54651
-1.00357
-0.658775
-0.438632
-0.298861
-0.205471
-0.136
-0.0744246
-6.53311
-3.07666
-1.4245
-0.793362
-0.482264
-0.309194
-0.209922
-0.147374
-0.101349
-0.058984
0.0204355
0.0639382
0.104265
0.138408
0.163577
0.177746
0.180108
0.170383
0.147211
0.115104
0.00916817
0.0657568
0.120648
0.170426
0.211164
0.239189
0.251961
0.247534
0.222796
0.183233
-0.0021931
0.0678606
0.13877
0.207341
0.268784
0.317494
0.348245
0.355812
0.333046
0.285371
-0.0112187
0.0712033
0.158124
0.247557
0.334716
0.412399
0.472071
0.503159
0.490227
0.435104
-0.0160176
0.0761079
0.177269
0.287881
0.404753
0.520615
0.624279
0.698381
0.712902
0.656668
-0.0161852
0.0815372
0.193278
0.322991
0.471272
0.633982
0.80059
0.948628
1.02821
0.996321
-0.0131093
0.0850349
0.201894
0.345674
0.523251
0.738642
0.988896
1.2541
1.47048
1.54005
-0.0095245
0.0829335
0.197327
0.34572
0.542985
0.807415
1.15487
1.58759
2.07609
2.47314
-0.00838903
0.0709432
0.172255
0.308567
0.500054
0.780253
1.19616
1.82187
2.84574
4.25325
-0.0104453
0.0507984
0.130742
0.239081
0.393165
0.629034
1.01789
1.75236
3.52708
7.10589
)
;

boundaryField
{
    movingWall
    {
        type            zeroGradient;
    }
    fixedWalls
    {
        type            zeroGradient;
    }
    frontAndBack
    {
        type            empty;
    }
}


// ************************************************************************* //
