/*--------------------------------*- C++ -*----------------------------------*\
  =========                 |
  \\      /  F ield         | OpenFOAM: The Open Source CFD Toolbox
   \\    /   O peration     | Website:  https://openfoam.org
    \\  /    A nd           | Version:  6
     \\/     M anipulation  |
\*---------------------------------------------------------------------------*/
FoamFile
{
    version     2.0;
    format      ascii;
    class       surfaceScalarField;
    location    "0.4";
    object      phi;
}
// * * * * * * * * * * * * * * * * * * * * * * * * * * * * * * * * * * * * * //

dimensions      [0 3 -1 0 0 0 0];

internalField   nonuniform List<scalar> 
760
(
6.57978e-09
-6.57245e-09
4.25873e-09
2.321e-09
-1.64287e-08
2.06874e-08
-5.77286e-08
4.12999e-08
-1.17759e-07
6.00306e-08
-1.91383e-07
7.36235e-08
-2.70513e-07
7.91305e-08
-3.44399e-07
7.3885e-08
-4.00034e-07
5.56352e-08
2.3028e-08
-4.23062e-07
-1.90655e-09
-4.66588e-09
-3.214e-08
3.25544e-08
-1.0678e-07
9.53277e-08
-2.32187e-07
1.66706e-07
-4.05511e-07
2.33355e-07
-6.14638e-07
2.82751e-07
-8.38329e-07
3.02821e-07
-1.04688e-06
2.82433e-07
-1.20357e-06
2.12324e-07
8.72051e-08
-1.26774e-06
-1.99098e-08
1.52439e-08
-9.52637e-08
1.07908e-07
-2.41507e-07
2.41571e-07
-4.65468e-07
3.90667e-07
-7.62238e-07
5.30125e-07
-1.11313e-06
6.33641e-07
-1.48471e-06
6.74406e-07
-1.8293e-06
6.27015e-07
-2.08723e-06
4.70256e-07
1.92224e-07
-2.19225e-06
-4.2004e-08
5.7248e-08
-1.74897e-07
2.40801e-07
-4.10228e-07
4.76902e-07
-7.51507e-07
7.31946e-07
-1.18897e-06
9.6759e-07
-1.6958e-06
1.14047e-06
-2.22588e-06
1.20448e-06
-2.7137e-06
1.11483e-06
-3.07721e-06
8.33762e-07
3.40013e-07
-3.225e-06
-6.68941e-08
1.24142e-07
-2.68086e-07
4.41993e-07
-6.1033e-07
8.19146e-07
-1.091e-06
1.21262e-06
-1.69227e-06
1.56886e-06
-2.37641e-06
1.82461e-06
-3.08276e-06
1.91083e-06
-3.72721e-06
1.75929e-06
-4.2053e-06
1.31185e-06
5.35262e-07
-4.40055e-06
-9.50354e-08
2.19178e-07
-3.76147e-07
7.23104e-07
-8.45323e-07
1.28832e-06
-1.49165e-06
1.85894e-06
-2.28584e-06
2.36304e-06
-3.17567e-06
2.71445e-06
-4.08307e-06
2.81823e-06
-4.9037e-06
2.57993e-06
-5.51024e-06
1.91838e-06
7.86054e-07
-5.76103e-06
-1.28002e-07
3.4718e-07
-5.04009e-07
1.09911e-06
-1.12486e-06
1.90917e-06
-1.96892e-06
2.70301e-06
-2.99155e-06
3.38567e-06
-4.12166e-06
3.84456e-06
-5.2602e-06
3.95677e-06
-6.28077e-06
3.60049e-06
-7.03317e-06
2.67078e-06
1.10403e-06
-7.35115e-06
-1.68434e-07
5.15613e-07
-6.60304e-07
1.59098e-06
-1.46518e-06
2.71405e-06
-2.54653e-06
3.78436e-06
-3.83878e-06
4.67791e-06
-5.24654e-06
5.25233e-06
-6.64607e-06
5.35629e-06
-7.88822e-06
4.84265e-06
-8.80239e-06
3.58495e-06
1.50294e-06
-9.2013e-06
-2.20252e-07
7.35865e-07
-8.57987e-07
2.22871e-06
-1.88973e-06
3.7458e-06
-3.25557e-06
5.15019e-06
-4.85981e-06
6.28215e-06
-6.57545e-06
6.96797e-06
-8.25125e-06
7.03209e-06
-9.71872e-06
6.31012e-06
-1.07959e-05
4.66211e-06
1.99307e-06
-1.1286e-05
-2.89574e-07
1.02544e-06
-1.11675e-06
3.05589e-06
-2.43129e-06
5.06034e-06
-4.13222e-06
6.85112e-06
-6.07731e-06
8.22724e-06
-8.09825e-06
8.98891e-06
-1.00174e-05
8.95126e-06
-1.16603e-05
7.95303e-06
-1.28573e-05
5.8591e-06
-1.34305e-05
2.56622e-06
-4.03259e-07
-1.98027e-08
-3.48773e-07
-5.44854e-08
-2.73893e-07
-7.48803e-08
-1.92657e-07
-8.12358e-08
-1.17055e-07
-7.56024e-08
-5.59724e-08
-6.10828e-08
-1.46986e-08
-4.12737e-08
5.26787e-09
-1.99664e-08
6.82536e-09
-1.55742e-09
6.82538e-09
-1.21109e-06
-7.64554e-08
-1.05718e-06
-2.08399e-07
-8.46467e-07
-2.8559e-07
-6.18021e-07
-3.09682e-07
-4.04337e-07
-2.89286e-07
-2.2846e-07
-2.3696e-07
-1.02868e-07
-1.66866e-07
-2.96221e-08
-9.32122e-08
-1.07436e-09
-3.01052e-08
5.75108e-09
-2.09856e-06
-1.70146e-07
-1.84502e-06
-4.61936e-07
-1.49754e-06
-6.33069e-07
-1.11907e-06
-6.8815e-07
-7.61342e-07
-6.47015e-07
-4.6048e-07
-5.37822e-07
-2.35858e-07
-3.91488e-07
-9.1418e-08
-2.37653e-07
-1.85487e-08
-1.02975e-07
-1.27975e-08
-3.09373e-06
-3.01413e-07
-2.73725e-06
-8.18411e-07
-2.24626e-06
-1.12406e-06
-1.70701e-06
-1.2274e-06
-1.19041e-06
-1.16361e-06
-7.46475e-07
-9.81761e-07
-4.0334e-07
-7.34624e-07
-1.69815e-07
-4.71177e-07
-4.00993e-08
-2.32691e-07
-5.28968e-08
-4.23134e-06
-4.70622e-07
-3.76583e-06
-1.28392e-06
-3.11896e-06
-1.77093e-06
-2.40046e-06
-1.9459e-06
-1.7018e-06
-1.86227e-06
-1.08949e-06
-1.59406e-06
-6.03901e-07
-1.22022e-06
-2.62277e-07
-8.12801e-07
-6.44683e-08
-4.305e-07
-1.17365e-07
-5.55477e-06
-6.76881e-07
-4.9725e-06
-1.8662e-06
-4.15266e-06
-2.59078e-06
-3.22911e-06
-2.86944e-06
-2.31661e-06
-2.77478e-06
-1.50246e-06
-2.40821e-06
-8.44106e-07
-1.87857e-06
-3.7146e-07
-1.28545e-06
-9.24286e-08
-7.09531e-07
-2.09794e-07
-7.11207e-06
-9.15962e-07
-6.40693e-06
-2.57134e-06
-5.39556e-06
-3.60215e-06
-4.23607e-06
-4.02893e-06
-3.06976e-06
-3.94109e-06
-2.01058e-06
-3.4674e-06
-1.13965e-06
-2.74949e-06
-5.05145e-07
-1.91995e-06
-1.26301e-07
-1.08837e-06
-3.36095e-07
-8.9406e-06
-1.17666e-06
-8.11545e-06
-3.39649e-06
-6.90093e-06
-4.81667e-06
-5.47631e-06
-5.45354e-06
-4.01154e-06
-5.40586e-06
-2.6539e-06
-4.82504e-06
-1.51737e-06
-3.88602e-06
-6.77159e-07
-2.76017e-06
-1.70144e-07
-1.59539e-06
-5.06239e-07
-1.10275e-05
-1.4352e-06
-1.01086e-05
-4.31532e-06
-8.7048e-06
-6.2205e-06
-7.0048e-06
-7.15354e-06
-5.20378e-06
-7.20688e-06
-3.48823e-06
-6.54059e-06
-2.0176e-06
-5.35664e-06
-9.0913e-07
-3.86864e-06
-2.3035e-07
-2.27417e-06
-7.36589e-07
-1.32174e-05
-1.64827e-06
-1.22812e-05
-5.25155e-06
-1.07653e-05
-7.73641e-06
-8.838e-06
-9.0808e-06
-6.70166e-06
-9.34322e-06
-4.58112e-06
-8.66114e-06
-2.69691e-06
-7.24085e-06
-1.23392e-06
-5.33163e-06
-3.17035e-07
-3.19106e-06
-1.05362e-06
-3.56689e-07
1.38213e-06
-1.35245e-06
4.05165e-06
-2.88793e-06
6.59582e-06
-4.79922e-06
8.76241e-06
-6.88678e-06
1.03148e-05
-8.94864e-06
1.10508e-05
-1.08088e-05
1.08114e-05
-1.23318e-05
9.47611e-06
-1.34175e-05
6.94479e-06
3.11819e-06
-1.39695e-05
-4.13317e-07
1.79545e-06
-1.52381e-06
5.16214e-06
-3.15158e-06
8.22359e-06
-5.04835e-06
1.06592e-05
-6.96012e-06
1.22266e-05
-8.67996e-06
1.27706e-05
-1.00798e-05
1.22112e-05
-1.1116e-05
1.05123e-05
-1.18078e-05
7.63662e-06
3.49977e-06
-1.21894e-05
-4.94072e-07
2.28952e-06
-1.73966e-06
6.40774e-06
-3.41732e-06
9.90125e-06
-5.16377e-06
1.24056e-05
-6.6815e-06
1.37443e-05
-7.79838e-06
1.38875e-05
-8.48085e-06
1.28937e-05
-8.81217e-06
1.08436e-05
-8.94868e-06
7.77314e-06
3.61266e-06
-9.06157e-06
-6.2382e-07
2.91334e-06
-2.03433e-06
7.81825e-06
-3.67932e-06
1.15462e-05
-5.06808e-06
1.37944e-05
-5.91318e-06
1.45894e-05
-6.15002e-06
1.41243e-05
-5.89348e-06
1.26371e-05
-5.37179e-06
1.03219e-05
-4.86404e-06
7.26539e-06
3.39811e-06
-4.6495e-06
-8.42986e-07
3.75632e-06
-2.42814e-06
9.4034e-06
-3.85274e-06
1.29708e-05
-4.5608e-06
1.45025e-05
-4.40222e-06
1.44308e-05
-3.51789e-06
1.324e-05
-2.20578e-06
1.1325e-05
-8.1626e-07
8.9324e-06
3.05126e-07
6.144e-06
2.8679e-06
8.35336e-07
-1.19932e-06
4.95564e-06
-2.85702e-06
1.10611e-05
-3.66415e-06
1.3778e-05
-3.23369e-06
1.4072e-05
-1.75387e-06
1.2951e-05
3.57619e-07
1.11285e-05
2.65227e-06
9.03038e-06
4.74117e-06
6.8435e-06
6.30439e-06
4.58078e-06
2.11562e-06
7.05667e-06
-1.67963e-06
6.63527e-06
-2.98282e-06
1.23643e-05
-2.47098e-06
1.32661e-05
-4.00895e-07
1.20019e-05
2.53332e-06
1.00168e-05
5.69943e-06
7.96239e-06
8.64217e-06
6.08764e-06
1.10689e-05
4.41674e-06
1.27815e-05
2.86823e-06
1.29877e-06
1.35983e-05
-2.00177e-06
8.63704e-06
-1.81002e-06
1.21726e-05
9.59391e-07
1.04967e-05
4.88531e-06
8.076e-06
8.93034e-06
5.97176e-06
1.25576e-05
4.33514e-06
1.55399e-05
3.10534e-06
1.78034e-05
2.15326e-06
1.93175e-05
1.35411e-06
5.94407e-07
2.00219e-05
-7.62552e-07
9.39959e-06
3.19807e-06
8.21193e-06
8.63038e-06
5.0644e-06
1.35865e-05
3.11985e-06
1.75799e-05
1.97841e-06
2.06271e-05
1.28795e-06
2.28748e-05
8.57616e-07
2.44611e-05
5.66946e-07
2.54713e-05
3.43896e-07
1.42863e-07
2.59229e-05
9.39959e-06
1.76115e-05
2.26759e-05
2.57958e-05
2.77742e-05
2.90621e-05
2.99197e-05
3.04867e-05
3.08306e-05
3.09734e-05
-1.3873e-05
-1.74478e-06
-1.31395e-05
-5.98506e-06
-1.18212e-05
-9.05468e-06
-9.99921e-06
-1.09028e-05
-7.82162e-06
-1.15208e-05
-5.51031e-06
-1.09725e-05
-3.33463e-06
-9.41652e-06
-1.56312e-06
-7.10315e-06
-4.10795e-07
-4.34338e-06
-1.46442e-06
-1.22398e-05
-1.69436e-06
-1.19127e-05
-6.31216e-06
-1.11338e-05
-9.83354e-06
-9.84321e-06
-1.21934e-05
-8.06428e-06
-1.32997e-05
-5.94397e-06
-1.30928e-05
-3.75026e-06
-1.16102e-05
-1.82376e-06
-9.02965e-06
-4.95774e-07
-5.67137e-06
-1.96019e-06
-9.23807e-06
-1.51786e-06
-9.38762e-06
-6.16262e-06
-9.31829e-06
-9.90287e-06
-8.8199e-06
-1.26918e-05
-7.74988e-06
-1.43698e-05
-6.11213e-06
-1.47305e-05
-4.10518e-06
-1.36172e-05
-2.11032e-06
-1.10245e-05
-6.03312e-07
-7.17837e-06
-2.56351e-06
-4.90999e-06
-1.25737e-06
-5.53238e-06
-5.54022e-06
-6.24854e-06
-9.18671e-06
-6.73235e-06
-1.2208e-05
-6.6709e-06
-1.44312e-05
-5.86491e-06
-1.55365e-05
-4.34204e-06
-1.51401e-05
-2.4343e-06
-1.29322e-05
-7.53869e-07
-8.85881e-06
-3.31737e-06
5.39921e-07
-9.61954e-07
-4.67739e-07
-4.53256e-06
-1.90838e-06
-7.74607e-06
-3.41954e-06
-1.06969e-05
-4.57499e-06
-1.32758e-05
-4.9609e-06
-1.51506e-05
-4.32771e-06
-1.57732e-05
-2.78911e-06
-1.44708e-05
-9.83167e-07
-1.06648e-05
-4.30054e-06
6.76797e-06
-6.73252e-07
5.53559e-06
-3.30018e-06
3.58357e-06
-5.79405e-06
1.20779e-06
-8.32108e-06
-1.17374e-06
-1.08942e-05
-3.01687e-06
-1.33075e-05
-3.7572e-06
-1.50329e-05
-3.07335e-06
-1.51547e-05
-1.32862e-06
-1.24095e-05
-5.62916e-06
1.33431e-05
-4.17982e-07
1.20894e-05
-2.04654e-06
9.96566e-06
-3.67029e-06
7.1186e-06
-5.47402e-06
3.80947e-06
-7.58509e-06
5.17663e-07
-1.00157e-05
-2.01294e-06
-1.25023e-05
-2.90645e-06
-1.42612e-05
-1.74778e-06
-1.35682e-05
-7.37693e-06
1.98146e-05
-2.10753e-07
1.87458e-05
-9.77726e-07
1.68507e-05
-1.77521e-06
1.41135e-05
-2.73675e-06
1.05444e-05
-4.016e-06
6.3169e-06
-5.78816e-06
1.9798e-06
-8.16522e-06
-1.30562e-06
-1.09758e-05
-1.90475e-06
-1.2969e-05
-9.28169e-06
2.57764e-05
-6.42738e-08
2.50608e-05
-2.62107e-07
2.37607e-05
-4.75112e-07
2.17748e-05
-7.50874e-07
1.89232e-05
-1.16441e-06
1.49866e-05
-1.85155e-06
9.8724e-06
-3.05104e-06
4.06031e-06
-5.16368e-06
-3.99601e-07
-8.50911e-06
-9.68129e-06
3.09092e-05
3.06471e-05
3.01719e-05
2.94211e-05
2.82567e-05
2.64051e-05
2.33541e-05
1.81904e-05
9.68129e-06
)
;

boundaryField
{
    movingWall
    {
        type            calculated;
        value           uniform 0;
    }
    fixedWalls
    {
        type            calculated;
        value           uniform 0;
    }
    frontAndBack
    {
        type            empty;
        value           nonuniform 0();
    }
}


// ************************************************************************* //
