/*--------------------------------*- C++ -*----------------------------------*\
  =========                 |
  \\      /  F ield         | OpenFOAM: The Open Source CFD Toolbox
   \\    /   O peration     | Website:  https://openfoam.org
    \\  /    A nd           | Version:  6
     \\/     M anipulation  |
\*---------------------------------------------------------------------------*/
FoamFile
{
    version     2.0;
    format      ascii;
    class       volVectorField;
    location    "0.4";
    object      U;
}
// * * * * * * * * * * * * * * * * * * * * * * * * * * * * * * * * * * * * * //

dimensions      [0 1 -1 0 0 0 0];

internalField   nonuniform List<vector> 
400
(
(0.000129658 -0.00012867 0)
(0.000242808 -5.13312e-05 0)
(-7.34811e-05 0.000131751 0)
(-0.00097657 0.000311288 0)
(-0.00247227 0.000447288 0)
(-0.004455 0.000522203 0)
(-0.00672972 0.000527698 0)
(-0.00901979 0.000461295 0)
(-0.0109752 0.000325121 0)
(-0.0121891 0.000126886 0)
(5.93358e-05 -0.000247677 0)
(-0.000233395 0.000246045 0)
(-0.00159537 0.0011012 0)
(-0.00429615 0.00194922 0)
(-0.00837352 0.00260459 0)
(-0.013626 0.00295988 0)
(-0.0196006 0.00295355 0)
(-0.0256031 0.0025606 0)
(-0.0307251 0.00178915 0)
(-0.0338973 0.000685981 0)
(-0.000115233 4.4408e-05 0)
(-0.00108193 0.00159639 0)
(-0.00378309 0.00375849 0)
(-0.00842361 0.0058785 0)
(-0.0149975 0.007527 0)
(-0.0232231 0.00840546 0)
(-0.0324517 0.00832071 0)
(-0.0416605 0.00718068 0)
(-0.0494885 0.00499579 0)
(-0.0543222 0.00189763 0)
(-0.000300305 0.000926663 0)
(-0.002015 0.00435085 0)
(-0.00620727 0.00845034 0)
(-0.0129235 0.0123423 0)
(-0.0220271 0.0153313 0)
(-0.0331208 0.0168722 0)
(-0.0453718 0.0165796 0)
(-0.0574795 0.0142505 0)
(-0.0677124 0.00988646 0)
(-0.0740127 0.00373908 0)
(-0.000476006 0.00249454 0)
(-0.00294797 0.00879769 0)
(-0.00870458 0.0155675 0)
(-0.0176079 0.0217303 0)
(-0.029329 0.0263347 0)
(-0.0433049 0.0285749 0)
(-0.0585014 0.0278476 0)
(-0.0733597 0.023817 0)
(-0.0858332 0.0164744 0)
(-0.0935001 0.00622206 0)
(-0.000645507 0.00482822 0)
(-0.00387929 0.0152263 0)
(-0.0112569 0.0255768 0)
(-0.0224599 0.0346059 0)
(-0.0369265 0.0411081 0)
(-0.0538794 0.0440207 0)
(-0.072051 0.0425273 0)
(-0.0896247 0.0361683 0)
(-0.104277 0.0249429 0)
(-0.113289 0.00943865 0)
(-0.00082012 0.00803878 0)
(-0.00484802 0.0239814 0)
(-0.0139367 0.0390252 0)
(-0.0275867 0.051641 0)
(-0.0449668 0.0603534 0)
(-0.0650367 0.0638552 0)
(-0.08626 0.0611498 0)
(-0.106558 0.0516993 0)
(-0.123368 0.0355576 0)
(-0.133743 0.0135382 0)
(-0.0010155 0.0122991 0)
(-0.00591825 0.0355328 0)
(-0.016878 0.0566094 0)
(-0.0331833 0.0736564 0)
(-0.0536744 0.0848992 0)
(-0.0769893 0.0888147 0)
(-0.101287 0.0842996 0)
(-0.124237 0.0708325 0)
(-0.143103 0.0486087 0)
(-0.154826 0.0187148 0)
(-0.00125141 0.0178759 0)
(-0.0071752 0.0505516 0)
(-0.0202622 0.0792572 0)
(-0.0394978 0.101664 0)
(-0.0632791 0.115678 0)
(-0.0898334 0.119635 0)
(-0.116985 0.112475 0)
(-0.142202 0.0938669 0)
(-0.162722 0.0642936 0)
(-0.175584 0.0251667 0)
(-0.00155537 0.0251734 0)
(-0.00873936 0.0700009 0)
(-0.0243348 0.108194 0)
(-0.0468142 0.136839 0)
(-0.0739076 0.153564 0)
(-0.103293 0.156761 0)
(-0.132451 0.14571 0)
(-0.158802 0.120595 0)
(-0.179858 0.0824166 0)
(-0.193163 0.0329612 0)
(-0.0122418 -0.000105536 0)
(-0.011097 -0.000316419 0)
(-0.00914153 -0.000467763 0)
(-0.00680056 -0.000543468 0)
(-0.00446107 -0.000538128 0)
(-0.00243155 -0.000456009 0)
(-0.000921262 -0.000310201 0)
(-3.16501e-05 -0.000123526 0)
(0.00026041 6.01526e-05 0)
(0.000132632 0.000131476 0)
(-0.0340134 -0.00059083 0)
(-0.0309937 -0.0017503 0)
(-0.0258742 -0.00258996 0)
(-0.0197639 -0.00302538 0)
(-0.0136504 -0.0030335 0)
(-0.00829532 -0.002647 0)
(-0.00418174 -0.00194831 0)
(-0.00150343 -0.00106769 0)
(-0.000189238 -0.000206541 0)
(6.93359e-05 0.00026491 0)
(-0.0544845 -0.00166627 0)
(-0.0498665 -0.00490048 0)
(-0.0420495 -0.0072514 0)
(-0.0326984 -0.00849635 0)
(-0.0232796 -0.00858825 0)
(-0.0149075 -0.00763682 0)
(-0.00827445 -0.00588453 0)
(-0.0036563 -0.00368348 0)
(-0.00101729 -0.0015002 0)
(-9.94591e-05 4.7809e-06 0)
(-0.0742298 -0.00330885 0)
(-0.0682266 -0.00970389 0)
(-0.0580303 -0.0143728 0)
(-0.0457557 -0.0168993 0)
(-0.0332618 -0.0172133 0)
(-0.0219662 -0.0155465 0)
(-0.0127647 -0.0123703 0)
(-0.00605677 -0.00832515 0)
(-0.00193264 -0.00417573 0)
(-0.000278891 -0.000829285 0)
(-0.0938116 -0.00549659 0)
(-0.0865907 -0.0161475 0)
(-0.0742191 -0.0239885 0)
(-0.0591768 -0.0283558 0)
(-0.0436642 -0.0291428 0)
(-0.0293939 -0.0267205 0)
(-0.0174962 -0.0218209 0)
(-0.00855517 -0.0154004 0)
(-0.00285367 -0.00852783 0)
(-0.000448967 -0.00233239 0)
(-0.113773 -0.00822996 0)
(-0.105489 -0.024348 0)
(-0.0910817 -0.0363604 0)
(-0.0733229 -0.0432854 0)
(-0.0547257 -0.0449341 0)
(-0.0373185 -0.0417952 0)
(-0.022521 -0.0348619 0)
(-0.0111694 -0.025421 0)
(-0.0037915 -0.0148679 0)
(-0.000614993 -0.00458807 0)
(-0.134525 -0.0114833 0)
(-0.125374 -0.0344403 0)
(-0.109086 -0.0518243 0)
(-0.0886427 -0.0622394 0)
(-0.0668402 -0.0653184 0)
(-0.0460535 -0.0615958 0)
(-0.0280626 -0.0522924 0)
(-0.0140369 -0.0390364 0)
(-0.00480998 -0.0236024 0)
(-0.000793048 -0.0077253 0)
(-0.156077 -0.0151591 0)
(-0.14638 -0.0464856 0)
(-0.128524 -0.0706824 0)
(-0.105556 -0.0858106 0)
(-0.0804893 -0.0911598 0)
(-0.0560603 -0.0871593 0)
(-0.0344905 -0.0751677 0)
(-0.017393 -0.0571499 0)
(-0.00601361 -0.0353386 0)
(-0.00100697 -0.011965 0)
(-0.177501 -0.0190298 0)
(-0.167835 -0.0603274 0)
(-0.149106 -0.0930176 0)
(-0.124168 -0.114467 0)
(-0.0960702 -0.123359 0)
(-0.067863 -0.119738 0)
(-0.0422873 -0.104895 0)
(-0.021564 -0.0810649 0)
(-0.00754849 -0.0510171 0)
(-0.00128961 -0.0176768 0)
(-0.195888 -0.0226544 0)
(-0.187257 -0.0753041 0)
(-0.16911 -0.118277 0)
(-0.143627 -0.148114 0)
(-0.113491 -0.162513 0)
(-0.0818535 -0.160634 0)
(-0.0519962 -0.143256 0)
(-0.0269776 -0.112632 0)
(-0.00961956 -0.0720807 0)
(-0.00168824 -0.0254618 0)
(-0.00195981 0.0344467 0)
(-0.0107434 0.0943022 0)
(-0.0292962 0.143564 0)
(-0.0551393 0.178634 0)
(-0.0849535 0.197097 0)
(-0.115704 0.197884 0)
(-0.144634 0.181205 0)
(-0.169477 0.148282 0)
(-0.188582 0.100953 0)
(-0.200667 0.0413755 0)
(-0.00252447 0.0455157 0)
(-0.0133703 0.122488 0)
(-0.0352856 0.183063 0)
(-0.064078 0.223069 0)
(-0.094875 0.240722 0)
(-0.123906 0.236431 0)
(-0.148568 0.212226 0)
(-0.16757 0.170984 0)
(-0.180855 0.115617 0)
(-0.189067 0.048503 0)
(-0.00341085 0.0585016 0)
(-0.0170805 0.153991 0)
(-0.0427374 0.22449 0)
(-0.0733082 0.265942 0)
(-0.101929 0.278634 0)
(-0.124515 0.265891 0)
(-0.139488 0.232549 0)
(-0.147446 0.183538 0)
(-0.150631 0.122758 0)
(-0.152076 0.0524445 0)
(-0.00498133 0.0744372 0)
(-0.0227944 0.189581 0)
(-0.0523192 0.266536 0)
(-0.0820116 0.303526 0)
(-0.103155 0.305583 0)
(-0.112709 0.280807 0)
(-0.111591 0.237546 0)
(-0.103268 0.182582 0)
(-0.0926227 0.120204 0)
(-0.0849559 0.0519335 0)
(-0.0079521 0.0953285 0)
(-0.0318807 0.230114 0)
(-0.0639533 0.306353 0)
(-0.0869162 0.330001 0)
(-0.0921871 0.314983 0)
(-0.0805469 0.275744 0)
(-0.0571764 0.223767 0)
(-0.0288677 0.166461 0)
(-0.00263533 0.10732 0)
(0.014908 0.0465155 0)
(-0.0134602 0.124672 0)
(-0.0454696 0.275184 0)
(-0.074328 0.337443 0)
(-0.0790418 0.336448 0)
(-0.0568498 0.299428 0)
(-0.0160837 0.246664 0)
(0.0330294 0.190376 0)
(0.081393 0.136256 0)
(0.121574 0.085608 0)
(0.147356 0.0369026 0)
(-0.0221149 0.168419 0)
(-0.0609846 0.319578 0)
(-0.0707549 0.346002 0)
(-0.0385163 0.31023 0)
(0.0228798 0.252379 0)
(0.0960655 0.193066 0)
(0.168199 0.140563 0)
(0.231025 0.0963144 0)
(0.279324 0.0587326 0)
(0.309125 0.0249479 0)
(-0.0285811 0.232674 0)
(-0.0614624 0.344463 0)
(-0.0194355 0.308205 0)
(0.0711405 0.238779 0)
(0.174424 0.173458 0)
(0.271509 0.121549 0)
(0.354165 0.0828914 0)
(0.419343 0.0541968 0)
(0.466208 0.0319812 0)
(0.493979 0.0132374 0)
(0.00799078 0.282862 0)
(0.0201788 0.300573 0)
(0.154039 0.205857 0)
(0.303683 0.130608 0)
(0.42534 0.0819541 0)
(0.518789 0.0515564 0)
(0.588815 0.0325884 0)
(0.639454 0.0202332 0)
(0.673784 0.0114944 0)
(0.693293 0.0045308 0)
(0.305485 0.144738 0)
(0.408941 0.125503 0)
(0.582953 0.0698639 0)
(0.70887 0.0365051 0)
(0.781828 0.0194298 0)
(0.827113 0.0107115 0)
(0.857107 0.00615007 0)
(0.87715 0.00357521 0)
(0.89002 0.00192605 0)
(0.89697 0.000684475 0)
(-0.204059 -0.025134 0)
(-0.197996 -0.0890872 0)
(-0.18308 -0.143303 0)
(-0.160081 -0.183555 0)
(-0.130561 -0.206143 0)
(-0.0972049 -0.208574 0)
(-0.0636242 -0.190237 0)
(-0.0339168 -0.152714 0)
(-0.012423 -0.0995908 0)
(-0.0022545 -0.0358701 0)
(-0.192461 -0.0255493 0)
(-0.190575 -0.0979566 0)
(-0.182341 -0.162087 0)
(-0.166401 -0.213418 0)
(-0.142233 -0.246755 0)
(-0.111042 -0.257189 0)
(-0.0760368 -0.241438 0)
(-0.0422263 -0.199023 0)
(-0.0160742 -0.132841 0)
(-0.00304368 -0.0489169 0)
(-0.154409 -0.0238372 0)
(-0.157755 -0.0996469 0)
(-0.159351 -0.170048 0)
(-0.155451 -0.231096 0)
(-0.142718 -0.27663 0)
(-0.119641 -0.299082 0)
(-0.0876422 -0.291229 0)
(-0.0517547 -0.248464 0)
(-0.0208725 -0.170934 0)
(-0.0041993 -0.0647159 0)
(-0.0851293 -0.0204809 0)
(-0.0939768 -0.0935342 0)
(-0.107469 -0.164855 0)
(-0.119932 -0.232119 0)
(-0.125175 -0.289422 0)
(-0.117988 -0.327287 0)
(-0.0960775 -0.333954 0)
(-0.0623963 -0.298273 0)
(-0.0275403 -0.21396 0)
(-0.00607015 -0.0841954 0)
(0.0175486 -0.0162128 0)
(0.00389887 -0.0803264 0)
(-0.0215481 -0.146218 0)
(-0.0524643 -0.213972 0)
(-0.0809211 -0.279639 0)
(-0.0981164 -0.333901 0)
(-0.0963365 -0.361588 0)
(-0.0729695 -0.343451 0)
(-0.0371329 -0.261553 0)
(-0.00935428 -0.109125 0)
(0.152597 -0.0117733 0)
(0.13577 -0.062058 0)
(0.100913 -0.116441 0)
(0.0532769 -0.177449 0)
(0.000218123 -0.244512 0)
(-0.0479038 -0.311516 0)
(-0.0781153 -0.363572 0)
(-0.0786489 -0.374958 0)
(-0.0501151 -0.311421 0)
(-0.0150869 -0.142581 0)
(0.31577 -0.0077031 0)
(0.298066 -0.0417084 0)
(0.258919 -0.0803094 0)
(0.20106 -0.12745 0)
(0.128588 -0.186048 0)
(0.0494439 -0.255694 0)
(-0.0221168 -0.327566 0)
(-0.0653108 -0.377082 0)
(-0.0624706 -0.355834 0)
(-0.023396 -0.189776 0)
(0.500193 -0.00430697 0)
(0.484251 -0.0226864 0)
(0.447745 -0.0444669 0)
(0.390599 -0.0732522 0)
(0.312206 -0.113534 0)
(0.21396 -0.170126 0)
(0.103213 -0.244646 0)
(-0.000121657 -0.326887 0)
(-0.0552502 -0.373185 0)
(-0.0274784 -0.254466 0)
(0.697335 -0.00181467 0)
(0.685813 -0.00849421 0)
(0.659312 -0.0167061 0)
(0.616204 -0.0283792 0)
(0.552668 -0.0467434 0)
(0.463172 -0.077382 0)
(0.340867 -0.128872 0)
(0.183657 -0.211087 0)
(0.0372226 -0.313896 0)
(0.0155717 -0.295942 0)
(0.898072 -0.000422505 0)
(0.893386 -0.00159442 0)
(0.882985 -0.00308657 0)
(0.865787 -0.00537171 0)
(0.839073 -0.00942715 0)
(0.797384 -0.0174158 0)
(0.727988 -0.0339274 0)
(0.603079 -0.0678114 0)
(0.423145 -0.125925 0)
(0.311856 -0.147041 0)
)
;

boundaryField
{
    movingWall
    {
        type            fixedValue;
        value           uniform (1 0 0);
    }
    fixedWalls
    {
        type            noSlip;
    }
    frontAndBack
    {
        type            empty;
    }
}


// ************************************************************************* //
