/*--------------------------------*- C++ -*----------------------------------*\
| =========                 |                                                 |
| \\      /  F ield         | OpenFOAM: The Open Source CFD Toolbox           |
|  \\    /   O peration     | Version:  5.0                                   |
|   \\  /    A nd           | Web:      www.OpenFOAM.org                      |
|    \\/     M anipulation  |                                                 |
\*---------------------------------------------------------------------------*/
FoamFile
{
    version     2.0;
    format      ascii;
    class       volScalarField;
    location    "10";
    object      p;
}
// * * * * * * * * * * * * * * * * * * * * * * * * * * * * * * * * * * * * * //

dimensions      [0 2 -2 0 0 0 0];

internalField   nonuniform List<scalar> 
400
(
8.26825e-08
-0.000117136
-0.000300186
-0.000181838
-0.00097036
-0.00288916
-0.00523363
-0.00738892
-0.00913582
-0.0103351
-0.0109356
-0.0108528
-0.0100355
-0.00835838
-0.00573966
-0.00216044
0.00222389
0.00674936
0.00993144
0.0112029
2.60493e-05
-6.2834e-05
-0.000275738
-0.000951757
-0.00232981
-0.00435016
-0.0064685
-0.00848997
-0.010099
-0.0112111
-0.0117595
-0.0117132
-0.0110096
-0.00956166
-0.00729424
-0.00417846
-0.000244416
0.00411423
0.00776794
0.00989649
0.000377573
-6.99601e-05
-0.000943791
-0.00241029
-0.00442001
-0.0065735
-0.00865664
-0.0105148
-0.0118753
-0.0127519
-0.0131278
-0.0129956
-0.0123188
-0.0110874
-0.00925115
-0.00678381
-0.00363253
0.000157161
0.00384954
0.00638627
0.000236755
-0.000575862
-0.00218351
-0.00441214
-0.00683884
-0.00908133
-0.0109439
-0.0123404
-0.0133306
-0.0139387
-0.0141654
-0.0140178
-0.0134584
-0.0124572
-0.0109873
-0.00905537
-0.00664232
-0.00362068
-0.00038392
0.00200996
-0.000718895
-0.00182773
-0.00400407
-0.00664807
-0.00912478
-0.0111453
-0.0126773
-0.013761
-0.0144945
-0.0149286
-0.015079
-0.0149392
-0.0144811
-0.0136798
-0.0125045
-0.0109638
-0.0091233
-0.00679573
-0.00433967
-0.00217714
-0.00248596
-0.00371966
-0.0060896
-0.00872273
-0.0109866
-0.0126943
-0.0139203
-0.0147834
-0.0153503
-0.0156687
-0.0157659
-0.0156418
-0.0152817
-0.0146563
-0.0137465
-0.0125164
-0.011102
-0.00933269
-0.00753732
-0.00573319
-0.00458088
-0.00578045
-0.00802699
-0.0104509
-0.0124133
-0.0138006
-0.0147928
-0.0154962
-0.0159522
-0.0162006
-0.016271
-0.016167
-0.0158835
-0.0153932
-0.0146975
-0.0137188
-0.0126312
-0.0112764
-0.00999622
-0.0085383
-0.00650205
-0.0075797
-0.00958302
-0.0117532
-0.0134219
-0.0145504
-0.0153855
-0.0159805
-0.0163648
-0.0165702
-0.0166275
-0.0165416
-0.016317
-0.0159256
-0.0153873
-0.0145889
-0.0137601
-0.0126741
-0.0117765
-0.0106296
-0.0079091
-0.00887727
-0.0106564
-0.0126056
-0.0140585
-0.0150229
-0.0157582
-0.0162847
-0.0166269
-0.0168085
-0.0168591
-0.0167866
-0.0166019
-0.0162731
-0.015848
-0.015149
-0.0145455
-0.013562
-0.0130064
-0.0120655
-0.00870806
-0.00958104
-0.0112084
-0.0130162
-0.0143502
-0.0152418
-0.0159325
-0.0164298
-0.0167592
-0.0169359
-0.0169918
-0.0169249
-0.0167603
-0.0164557
-0.0160995
-0.0154145
-0.0150147
-0.0139655
-0.0137495
-0.0128862
-0.00885838
-0.00969314
-0.0112381
-0.013002
-0.0143201
-0.0152282
-0.0159218
-0.0164236
-0.0167633
-0.0169482
-0.0170093
-0.0169446
-0.0167816
-0.0164753
-0.0161293
-0.0154229
-0.0151367
-0.0139197
-0.014047
-0.0130706
-0.0083894
-0.00924558
-0.0107771
-0.0125883
-0.0139842
-0.0149764
-0.0157152
-0.0162537
-0.0166252
-0.0168342
-0.0169056
-0.0168397
-0.0166548
-0.0163303
-0.0159156
-0.0152114
-0.0148161
-0.0134861
-0.0138248
-0.0126053
-0.00742247
-0.00835954
-0.00991943
-0.0117836
-0.0133369
-0.0144654
-0.0152967
-0.0159064
-0.0163339
-0.0165817
-0.0166666
-0.0165875
-0.0163616
-0.0159811
-0.0154607
-0.0147193
-0.0140727
-0.012675
-0.0130451
-0.0114804
-0.0062789
-0.00725606
-0.00878806
-0.0105895
-0.0123283
-0.0136509
-0.0146327
-0.015355
-0.0158647
-0.0161646
-0.0162665
-0.016171
-0.0158901
-0.0154205
-0.0147667
-0.0139009
-0.0129356
-0.0114612
-0.0117015
-0.00973181
-0.00523839
-0.00613845
-0.00750106
-0.00911018
-0.0108962
-0.0124508
-0.0136738
-0.0145765
-0.0152088
-0.0155836
-0.0157124
-0.015597
-0.0152448
-0.0146517
-0.0138193
-0.0127351
-0.0114367
-0.00983859
-0.00986313
-0.00742089
-0.00477808
-0.00525778
-0.00611084
-0.00736786
-0.00905395
-0.0108152
-0.0123347
-0.0135062
-0.0143355
-0.0148329
-0.0150109
-0.0148774
-0.0144378
-0.0136873
-0.0126274
-0.0112581
-0.00964031
-0.00785724
-0.00757784
-0.00458795
-0.00482561
-0.0047152
-0.00468592
-0.00541473
-0.00690902
-0.00877421
-0.0105831
-0.0120695
-0.0131623
-0.01385
-0.0141379
-0.0140223
-0.0135017
-0.012582
-0.0112707
-0.009581
-0.00761424
-0.00562207
-0.00489852
-0.00111588
-0.0046967
-0.00402248
-0.00318148
-0.00339451
-0.00468371
-0.00658424
-0.00859958
-0.0103465
-0.0117006
-0.0125953
-0.0130168
-0.0129525
-0.0124107
-0.0113741
-0.00986114
-0.00788991
-0.00561669
-0.00323281
-0.00142752
0.00442811
-0.00402658
-0.00305009
-0.00183662
-0.00179505
-0.00292221
-0.0048143
-0.00695086
-0.00892665
-0.0105027
-0.0115935
-0.0121497
-0.0121677
-0.0116307
-0.010544
-0.00891358
-0.00672453
-0.00396621
-0.000479886
0.00497732
0.0175477
-0.00540125
-0.0021429
-0.000756031
-0.000804078
-0.00182494
-0.00366771
-0.00587258
-0.00803884
-0.00980443
-0.0110468
-0.0117124
-0.0118131
-0.0113479
-0.0103249
-0.00870611
-0.00633749
-0.00232587
0.00510943
0.0194106
0.0422
)
;

boundaryField
{
    movingWall
    {
        type            zeroGradient;
    }
    fixedWalls
    {
        type            zeroGradient;
    }
    frontAndBack
    {
        type            empty;
    }
}


// ************************************************************************* //
