/*--------------------------------*- C++ -*----------------------------------*\
| =========                 |                                                 |
| \\      /  F ield         | OpenFOAM: The Open Source CFD Toolbox           |
|  \\    /   O peration     | Version:  5.0                                   |
|   \\  /    A nd           | Web:      www.OpenFOAM.org                      |
|    \\/     M anipulation  |                                                 |
\*---------------------------------------------------------------------------*/
FoamFile
{
    version     2.0;
    format      ascii;
    class       surfaceScalarField;
    location    "10";
    object      phi;
}
// * * * * * * * * * * * * * * * * * * * * * * * * * * * * * * * * * * * * * //

dimensions      [0 3 -1 0 0 0 0];

internalField   nonuniform List<scalar> 
760
(
3.06183e-07
-3.06191e-07
1.82463e-07
1.2372e-07
-5.63898e-07
7.4636e-07
-2.16191e-06
1.59801e-06
-4.04116e-06
1.87925e-06
-5.61179e-06
1.57062e-06
-6.93714e-06
1.32535e-06
-7.8759e-06
9.38765e-07
-8.6053e-06
7.29395e-07
-9.05783e-06
4.52528e-07
-9.34561e-06
2.87783e-07
-9.39561e-06
4.99962e-08
-9.27807e-06
-1.17534e-07
-8.94084e-06
-3.37237e-07
-8.36079e-06
-5.80049e-07
-7.41423e-06
-9.46562e-07
-6.00899e-06
-1.40524e-06
-4.01083e-06
-1.99816e-06
-1.619e-06
-2.39183e-06
-1.619e-06
-3.09109e-07
2.91804e-09
-1.35315e-06
1.16776e-06
-3.13282e-06
2.52602e-06
-4.86049e-06
3.32569e-06
-6.08104e-06
3.0998e-06
-7.18963e-06
2.67922e-06
-7.98895e-06
2.12467e-06
-8.67079e-06
1.6206e-06
-9.10718e-06
1.16579e-06
-9.3771e-06
7.22443e-07
-9.4424e-06
3.53083e-07
-9.35154e-06
-4.08615e-08
-9.12946e-06
-3.3961e-07
-8.75144e-06
-7.1526e-07
-8.17889e-06
-1.1526e-06
-7.38155e-06
-1.7439e-06
-6.22911e-06
-2.55768e-06
-4.59313e-06
-3.63414e-06
-2.35457e-06
-4.63039e-06
-3.97356e-06
-1.10049e-06
1.10341e-06
-2.7342e-06
2.80147e-06
-4.28714e-06
4.07897e-06
-5.43731e-06
4.47586e-06
-6.29901e-06
3.96149e-06
-6.95884e-06
3.33905e-06
-7.33582e-06
2.50165e-06
-7.55801e-06
1.84279e-06
-7.55439e-06
1.16217e-06
-7.5104e-06
6.78452e-07
-7.3921e-06
2.34777e-07
-7.28863e-06
-1.44334e-07
-7.04624e-06
-5.81993e-07
-6.7359e-06
-1.02561e-06
-6.26965e-06
-1.61884e-06
-5.70463e-06
-2.30892e-06
-4.96485e-06
-3.29746e-06
-3.9337e-06
-4.6653e-06
-2.32936e-06
-6.23473e-06
-6.30293e-06
-1.42787e-06
2.53128e-06
-3.03588e-06
4.40948e-06
-4.30072e-06
5.3438e-06
-5.07762e-06
5.25276e-06
-5.54871e-06
4.43258e-06
-5.73025e-06
3.52058e-06
-5.74051e-06
2.51192e-06
-5.7156e-06
1.81788e-06
-5.70012e-06
1.14669e-06
-5.68718e-06
6.65507e-07
-5.60684e-06
1.54433e-07
-5.49355e-06
-2.57618e-07
-5.32195e-06
-7.53596e-07
-5.07736e-06
-1.27019e-06
-4.71963e-06
-1.97658e-06
-4.20574e-06
-2.82281e-06
-3.61837e-06
-3.88483e-06
-2.90942e-06
-5.37425e-06
-1.81049e-06
-7.33366e-06
-8.11342e-06
-1.45487e-06
3.98615e-06
-2.78031e-06
5.73493e-06
-3.65449e-06
6.21798e-06
-4.14065e-06
5.73892e-06
-4.31555e-06
4.60748e-06
-4.3165e-06
3.52154e-06
-4.31202e-06
2.50743e-06
-4.30239e-06
1.80825e-06
-4.2759e-06
1.12021e-06
-4.24065e-06
6.30257e-07
-4.18829e-06
1.02078e-07
-4.10304e-06
-3.42874e-07
-3.96487e-06
-8.91768e-07
-3.77391e-06
-1.46114e-06
-3.52933e-06
-2.22116e-06
-3.16442e-06
-3.18772e-06
-2.7147e-06
-4.33455e-06
-2.24341e-06
-5.84554e-06
-1.42913e-06
-8.14794e-06
-9.54254e-06
-1.19823e-06
5.18438e-06
-2.15948e-06
6.69618e-06
-2.79132e-06
6.84983e-06
-3.09902e-06
6.04662e-06
-3.17241e-06
4.68087e-06
-3.14143e-06
3.49055e-06
-3.14123e-06
2.50724e-06
-3.12596e-06
1.79298e-06
-3.10716e-06
1.10141e-06
-3.0734e-06
5.96492e-07
-3.02988e-06
5.85614e-08
-2.96404e-06
-4.08717e-07
-2.87172e-06
-9.84089e-07
-2.71619e-06
-1.61667e-06
-2.51058e-06
-2.42677e-06
-2.24492e-06
-3.45338e-06
-1.88904e-06
-4.69043e-06
-1.50596e-06
-6.22862e-06
-1.08583e-06
-8.56807e-06
-1.06284e-05
-8.63255e-07
6.04763e-06
-1.53348e-06
7.3664e-06
-1.97547e-06
7.29181e-06
-2.15204e-06
6.22319e-06
-2.19456e-06
4.72339e-06
-2.18834e-06
3.48434e-06
-2.19933e-06
2.51823e-06
-2.19286e-06
1.78651e-06
-2.18929e-06
1.09784e-06
-2.16466e-06
5.71864e-07
-2.13776e-06
3.16607e-08
-2.09053e-06
-4.55945e-07
-2.04319e-06
-1.03143e-06
-1.95031e-06
-1.70955e-06
-1.80715e-06
-2.56992e-06
-1.62103e-06
-3.63951e-06
-1.36209e-06
-4.94936e-06
-1.08167e-06
-6.50905e-06
-8.03615e-07
-8.84613e-06
-1.1432e-05
-5.04754e-07
6.55238e-06
-9.36558e-07
7.79821e-06
-1.22329e-06
7.57854e-06
-1.346e-06
6.3459e-06
-1.3871e-06
4.7645e-06
-1.39867e-06
3.4959e-06
-1.42667e-06
2.54622e-06
-1.43837e-06
1.79822e-06
-1.45143e-06
1.1109e-06
-1.43872e-06
5.5915e-07
-1.42207e-06
1.50097e-08
-1.37923e-06
-4.98785e-07
-1.33779e-06
-1.07287e-06
-1.27718e-06
-1.77016e-06
-1.17681e-06
-2.67029e-06
-1.05493e-06
-3.76139e-06
-8.74183e-07
-5.13011e-06
-6.8568e-07
-6.69755e-06
-5.90469e-07
-8.94134e-06
-1.20225e-05
-2.16899e-07
6.76928e-06
-4.38125e-07
8.01943e-06
-5.88523e-07
7.72894e-06
-6.8222e-07
6.4396e-06
-7.14607e-07
4.79689e-06
-7.39529e-07
3.52082e-06
-7.84178e-07
2.59087e-06
-8.19951e-07
1.83399e-06
-8.54834e-07
1.14578e-06
-8.63526e-07
5.67843e-07
-8.63343e-07
1.48266e-08
-8.46252e-07
-5.15876e-07
-8.15545e-07
-1.10358e-06
-7.78907e-07
-1.8068e-06
-7.23578e-07
-2.72562e-06
-6.50684e-07
-3.83428e-06
-5.75746e-07
-5.20505e-06
-4.79975e-07
-6.79332e-06
-4.2624e-07
-8.99507e-06
-1.24487e-05
8.32754e-08
6.68601e-06
2.58852e-08
8.07682e-06
-2.56812e-08
7.78051e-06
-5.19039e-08
6.46582e-06
-9.32529e-08
4.83824e-06
-1.53405e-07
3.58098e-06
-2.08584e-07
2.64605e-06
-2.56873e-07
1.88228e-06
-3.0026e-07
1.18917e-06
-3.22151e-07
5.89735e-07
-3.39646e-07
3.2321e-08
-3.43876e-07
-5.11646e-07
-3.21559e-07
-1.12589e-06
-3.09065e-07
-1.81929e-06
-2.70398e-07
-2.76429e-06
-2.69446e-07
-3.83523e-06
-2.32186e-07
-5.24231e-06
-2.34036e-07
-6.79147e-06
-3.19943e-07
-8.90916e-06
-1.27686e-05
3.49336e-07
6.33667e-06
5.03207e-07
7.92295e-06
5.82012e-07
7.7017e-06
5.11832e-07
6.536e-06
4.48582e-07
4.90149e-06
3.94881e-07
3.63468e-06
3.46301e-07
2.69463e-06
2.97328e-07
1.93125e-06
2.46468e-07
1.24003e-06
2.03037e-07
6.33165e-07
1.72728e-07
6.26302e-08
1.47437e-07
-4.86355e-07
1.40406e-07
-1.11886e-06
1.12219e-07
-1.7911e-06
1.1862e-07
-2.77069e-06
3.85837e-10
-3.717e-06
4.29576e-08
-5.28488e-06
-1.07899e-07
-6.64062e-06
-2.17804e-07
-8.79926e-06
-1.29864e-05
6.04444e-07
5.73223e-06
9.68008e-07
7.55939e-06
1.17132e-06
7.49839e-06
1.11887e-06
6.58845e-06
1.03605e-06
4.9843e-06
9.68311e-07
3.70242e-06
9.21649e-07
2.74129e-06
8.78574e-07
1.97433e-06
8.25709e-07
1.29289e-06
7.74733e-07
6.84141e-07
7.30662e-07
1.06702e-07
6.96765e-07
-4.52458e-07
6.47487e-07
-1.06958e-06
6.16843e-07
-1.76046e-06
5.24512e-07
-2.67836e-06
4.39784e-07
-3.63227e-06
3.09308e-07
-5.15441e-06
6.37052e-08
-6.39501e-06
-1.27246e-07
-8.60831e-06
-1.31137e-05
8.90721e-07
4.84151e-06
1.39159e-06
7.05852e-06
1.72213e-06
7.16784e-06
1.77824e-06
6.53235e-06
1.67002e-06
5.09252e-06
1.59758e-06
3.77485e-06
1.55998e-06
2.77889e-06
1.53084e-06
2.00347e-06
1.48921e-06
1.33452e-06
1.43773e-06
7.35626e-07
1.37221e-06
1.72216e-07
1.30668e-06
-3.86927e-07
1.21798e-06
-9.80885e-07
1.13189e-06
-1.67436e-06
9.67104e-07
-2.51358e-06
8.27859e-07
-3.49302e-06
5.66338e-07
-4.89289e-06
2.4415e-07
-6.07283e-06
1.39376e-08
-8.37809e-06
-1.30998e-05
1.13356e-06
3.70795e-06
1.85776e-06
6.33433e-06
2.29027e-06
6.73533e-06
2.48227e-06
6.34034e-06
2.40373e-06
5.17107e-06
2.32851e-06
3.85007e-06
2.29032e-06
2.81708e-06
2.271e-06
2.0228e-06
2.24166e-06
1.36386e-06
2.19451e-06
7.82783e-07
2.11941e-06
2.47312e-07
2.02586e-06
-2.93374e-07
1.90383e-06
-8.58857e-07
1.75684e-06
-1.52737e-06
1.54704e-06
-2.30378e-06
1.33982e-06
-3.2858e-06
9.65232e-07
-4.5183e-06
5.25104e-07
-5.6327e-06
1.33958e-07
-7.98695e-06
-1.29658e-05
1.35893e-06
2.34902e-06
2.17234e-06
5.52092e-06
2.74105e-06
6.16661e-06
3.15173e-06
5.92967e-06
3.26146e-06
5.06134e-06
3.22789e-06
3.88364e-06
3.17659e-06
2.86838e-06
3.14922e-06
2.05017e-06
3.11699e-06
1.39608e-06
3.06842e-06
8.31362e-07
2.98594e-06
3.29787e-07
2.87336e-06
-1.80795e-07
2.71262e-06
-6.98119e-07
2.51027e-06
-1.32502e-06
2.24485e-06
-2.03836e-06
1.91759e-06
-2.95854e-06
1.3918e-06
-3.99251e-06
7.63419e-07
-5.00431e-06
2.93062e-07
-7.51659e-06
-1.26727e-05
1.36923e-06
9.79784e-07
2.32895e-06
4.5612e-06
3.06372e-06
5.43185e-06
3.71717e-06
5.27622e-06
4.10075e-06
4.67776e-06
4.24244e-06
3.74195e-06
4.27873e-06
2.83208e-06
4.27734e-06
2.05157e-06
4.24284e-06
1.43058e-06
4.18106e-06
8.93141e-07
4.08439e-06
4.26457e-07
3.95198e-06
-4.83901e-08
3.7479e-06
-4.94038e-07
3.48646e-06
-1.06358e-06
3.13043e-06
-1.68233e-06
2.64682e-06
-2.47493e-06
1.97055e-06
-3.31624e-06
1.15991e-06
-4.19367e-06
5.42215e-07
-6.8989e-06
-1.21305e-05
7.87125e-07
1.92659e-07
1.98943e-06
3.3589e-06
3.10227e-06
4.31901e-06
4.03065e-06
4.34783e-06
4.73584e-06
3.97257e-06
5.18243e-06
3.29536e-06
5.43411e-06
2.5804e-06
5.55986e-06
1.92582e-06
5.60259e-06
1.38784e-06
5.58828e-06
9.07448e-07
5.49799e-06
5.16754e-07
5.31622e-06
1.33372e-07
5.06626e-06
-2.44073e-07
4.71204e-06
-7.09363e-07
4.20465e-06
-1.17494e-06
3.51011e-06
-1.78039e-06
2.56975e-06
-2.37588e-06
1.5352e-06
-3.15911e-06
8.6537e-07
-6.22907e-06
-1.12651e-05
-1.72237e-07
3.64896e-07
1.25391e-06
1.93275e-06
2.62788e-06
2.94504e-06
3.89327e-06
3.08245e-06
4.94259e-06
2.92325e-06
5.74349e-06
2.49446e-06
6.29606e-06
2.02783e-06
6.68149e-06
1.54039e-06
6.87951e-06
1.18982e-06
6.96648e-06
8.20484e-07
6.90114e-06
5.82091e-07
6.76643e-06
2.68082e-07
6.44245e-06
7.99006e-08
5.99755e-06
-2.6446e-07
5.31465e-06
-4.92037e-07
4.45785e-06
-9.23593e-07
3.23791e-06
-1.15593e-06
2.19599e-06
-2.1172e-06
1.42893e-06
-5.46201e-06
-9.83621e-06
-1.20361e-06
1.5685e-06
-1.76492e-07
9.05639e-07
1.45373e-06
1.31481e-06
3.03736e-06
1.49881e-06
4.42978e-06
1.53083e-06
5.55828e-06
1.36596e-06
6.39802e-06
1.1881e-06
6.99299e-06
9.45415e-07
7.38634e-06
7.96472e-07
7.5885e-06
6.18333e-07
7.64562e-06
5.2497e-07
7.52914e-06
3.84563e-07
7.28963e-06
3.19402e-07
6.84919e-06
1.75988e-07
6.25455e-06
1.02603e-07
5.4255e-06
-9.45448e-08
4.55833e-06
-2.8877e-07
3.85728e-06
-1.41614e-06
2.62976e-06
-4.23449e-06
-7.20646e-06
1.5685e-06
2.47414e-06
3.78895e-06
5.28777e-06
6.8186e-06
8.18456e-06
9.37266e-06
1.03181e-05
1.11145e-05
1.17329e-05
1.22578e-05
1.26424e-05
1.29618e-05
1.31378e-05
1.32404e-05
1.31459e-05
1.28571e-05
1.1441e-05
7.20646e-06
)
;

boundaryField
{
    movingWall
    {
        type            calculated;
        value           uniform 0;
    }
    fixedWalls
    {
        type            calculated;
        value           uniform 0;
    }
    frontAndBack
    {
        type            empty;
        value           nonuniform 0();
    }
}


// ************************************************************************* //
