/*--------------------------------*- C++ -*----------------------------------*\
| =========                 |                                                 |
| \\      /  F ield         | OpenFOAM: The Open Source CFD Toolbox           |
|  \\    /   O peration     | Version:  5.0                                   |
|   \\  /    A nd           | Web:      www.OpenFOAM.org                      |
|    \\/     M anipulation  |                                                 |
\*---------------------------------------------------------------------------*/
FoamFile
{
    version     2.0;
    format      ascii;
    class       volVectorField;
    location    "10";
    object      U;
}
// * * * * * * * * * * * * * * * * * * * * * * * * * * * * * * * * * * * * * //

dimensions      [0 1 -1 0 0 0 0];

internalField   nonuniform List<vector> 
400
(
(0.00263851 -0.00447855 0)
(0.00914487 -0.00243659 0)
(-0.00294583 0.00165521 0)
(-0.016069 0.0101713 0)
(-0.0676911 0.0211705 0)
(-0.100713 0.0153978 0)
(-0.131021 0.0152889 0)
(-0.15076 0.0114953 0)
(-0.16762 0.0100814 0)
(-0.178024 0.00711757 0)
(-0.185735 0.00576373 0)
(-0.189042 0.00336907 0)
(-0.189538 0.00110923 0)
(-0.183961 -0.00153247 0)
(-0.174256 -0.00493079 0)
(-0.156484 -0.00951765 0)
(-0.13177 -0.0148853 0)
(-0.0967391 -0.0204716 0)
(-0.0578401 -0.0198271 0)
(-0.0111196 -0.00459284 0)
(-0.000991 -0.00902998 0)
(-0.010953 0.00789697 0)
(-0.0404494 0.0312523 0)
(-0.081635 0.0524246 0)
(-0.114455 0.0494707 0)
(-0.135975 0.0430228 0)
(-0.154869 0.0353686 0)
(-0.168703 0.024462 0)
(-0.179722 0.0177841 0)
(-0.18611 0.0097376 0)
(-0.190064 0.00462051 0)
(-0.189897 -0.0020082 0)
(-0.187132 -0.00701421 0)
(-0.180666 -0.0143333 0)
(-0.170598 -0.0218223 0)
(-0.15517 -0.0333541 0)
(-0.133785 -0.0475906 0)
(-0.104845 -0.0661977 0)
(-0.0710287 -0.0798014 0)
(-0.0182541 -0.055114 0)
(-0.00874851 0.0095511 0)
(-0.035651 0.0417914 0)
(-0.0711208 0.067836 0)
(-0.101853 0.0780871 0)
(-0.121363 0.0700448 0)
(-0.134527 0.0596684 0)
(-0.146024 0.0448379 0)
(-0.150673 0.0350672 0)
(-0.151346 0.0241394 0)
(-0.151231 0.0155334 0)
(-0.149599 0.00709473 0)
(-0.147671 -0.000365833 0)
(-0.144753 -0.00836942 0)
(-0.138957 -0.0167833 0)
(-0.131562 -0.0278934 0)
(-0.120795 -0.0417767 0)
(-0.105782 -0.062395 0)
(-0.0850266 -0.0889153 0)
(-0.0638002 -0.116248 0)
(-0.0217735 -0.113373 0)
(-0.0118629 0.0370415 0)
(-0.0457009 0.0734619 0)
(-0.0783091 0.095526 0)
(-0.0989108 0.0964072 0)
(-0.109629 0.0829396 0)
(-0.115856 0.0678309 0)
(-0.115203 0.0506498 0)
(-0.112942 0.0363494 0)
(-0.114512 0.0228142 0)
(-0.113495 0.0129055 0)
(-0.113725 0.00323785 0)
(-0.111837 -0.0047514 0)
(-0.109282 -0.0141989 0)
(-0.104912 -0.023882 0)
(-0.0982015 -0.0367107 0)
(-0.0912518 -0.0514261 0)
(-0.0795755 -0.0721808 0)
(-0.0604391 -0.103185 0)
(-0.0491583 -0.139786 0)
(-0.0167215 -0.148171 0)
(-0.0119914 0.0641733 0)
(-0.0470431 0.100811 0)
(-0.0691075 0.113662 0)
(-0.0830741 0.108006 0)
(-0.0868011 0.0898873 0)
(-0.0868567 0.0713713 0)
(-0.0844291 0.0511184 0)
(-0.0858082 0.0369029 0)
(-0.0849077 0.0228473 0)
(-0.0854786 0.0129901 0)
(-0.0842832 0.00239706 0)
(-0.0841279 -0.00629162 0)
(-0.0810252 -0.0170883 0)
(-0.0788382 -0.0283327 0)
(-0.0722155 -0.0435606 0)
(-0.06731 -0.0612356 0)
(-0.0621796 -0.0824083 0)
(-0.0424284 -0.113026 0)
(-0.0436406 -0.158997 0)
(-0.00686902 -0.181622 0)
(-0.0104056 0.0899667 0)
(-0.0387552 0.123014 0)
(-0.0530183 0.129582 0)
(-0.063947 0.117792 0)
(-0.062951 0.0946332 0)
(-0.0620932 0.071442 0)
(-0.0612497 0.0514001 0)
(-0.0629103 0.0370875 0)
(-0.0611023 0.0229993 0)
(-0.0623938 0.0128905 0)
(-0.0603612 0.0019778 0)
(-0.0611674 -0.00694863 0)
(-0.0582562 -0.0181151 0)
(-0.0574351 -0.030022 0)
(-0.0523877 -0.0458774 0)
(-0.0458197 -0.0660719 0)
(-0.0463595 -0.0894837 0)
(-0.0259567 -0.1194 0)
(-0.0338597 -0.166582 0)
(-0.00374699 -0.202217 0)
(-0.00794218 0.111565 0)
(-0.0279771 0.139176 0)
(-0.0381947 0.140223 0)
(-0.0455347 0.122081 0)
(-0.0424181 0.0937997 0)
(-0.0428309 0.0702789 0)
(-0.0428739 0.0507109 0)
(-0.0442157 0.0361031 0)
(-0.0427211 0.0221091 0)
(-0.0440963 0.0116332 0)
(-0.0422173 0.0005596 0)
(-0.043198 -0.00897724 0)
(-0.0410729 -0.0205899 0)
(-0.0406033 -0.0337631 0)
(-0.0389418 -0.0502677 0)
(-0.0311352 -0.0713209 0)
(-0.0356946 -0.0965713 0)
(-0.0159416 -0.128126 0)
(-0.0293482 -0.174928 0)
(0.00201845 -0.222009 0)
(-0.00422264 0.125512 0)
(-0.0170725 0.151195 0)
(-0.023954 0.148744 0)
(-0.0288229 0.12628 0)
(-0.0257315 0.0967385 0)
(-0.0273375 0.0709295 0)
(-0.0276354 0.0512935 0)
(-0.0289012 0.0362834 0)
(-0.0280217 0.0224968 0)
(-0.0293304 0.0117374 0)
(-0.0279193 0.000826611 0)
(-0.0286177 -0.0088929 0)
(-0.0271555 -0.0201937 0)
(-0.02578 -0.0340159 0)
(-0.0268471 -0.0515186 0)
(-0.0181009 -0.0733267 0)
(-0.0261082 -0.0995674 0)
(-0.00620091 -0.130704 0)
(-0.0234028 -0.176889 0)
(0.00357015 -0.233805 0)
(-0.00116812 0.13446 0)
(-0.00828444 0.158403 0)
(-0.0115206 0.153064 0)
(-0.0147216 0.127957 0)
(-0.0121935 0.0946918 0)
(-0.0145778 0.0694031 0)
(-0.0147872 0.0509471 0)
(-0.0162407 0.0360322 0)
(-0.0161179 0.0223655 0)
(-0.0174877 0.0110047 0)
(-0.0167624 -0.000139525 0)
(-0.0173686 -0.0106525 0)
(-0.0170498 -0.0221669 0)
(-0.0148036 -0.0361517 0)
(-0.0179035 -0.0544953 0)
(-0.00885096 -0.0763556 0)
(-0.0195567 -0.104389 0)
(-0.000514393 -0.13591 0)
(-0.0212266 -0.179925 0)
(0.00729662 -0.246 0)
(0.00261965 0.135701 0)
(0.000320514 0.162458 0)
(0.000169145 0.156235 0)
(-0.00176669 0.129627 0)
(-0.000137172 0.0977994 0)
(-0.002945 0.0719541 0)
(-0.00322355 0.0529492 0)
(-0.00487371 0.0375223 0)
(-0.00518184 0.0235457 0)
(-0.00643185 0.0116828 0)
(-0.0064238 0.000665639 0)
(-0.00678288 -0.0101481 0)
(-0.00744487 -0.0220816 0)
(-0.0047136 -0.0357976 0)
(-0.00891001 -0.0548119 0)
(-0.000130743 -0.0757331 0)
(-0.012845 -0.104855 0)
(0.00614221 -0.134357 0)
(-0.0180508 -0.179504 0)
(0.00819619 -0.252388 0)
(0.00592282 0.132288 0)
(0.0073544 0.161875 0)
(0.010693 0.155711 0)
(0.00995668 0.129921 0)
(0.0110814 0.095972 0)
(0.00811855 0.0707706 0)
(0.00788484 0.0524935 0)
(0.00629767 0.0374365 0)
(0.00574309 0.0237074 0)
(0.00447915 0.0117094 0)
(0.00368113 0.000570852 0)
(0.0035193 -0.0103924 0)
(0.00204038 -0.0231151 0)
(0.00409356 -0.0368583 0)
(-0.000436454 -0.0564044 0)
(0.00652492 -0.0765077 0)
(-0.00717971 -0.1073 0)
(0.0102901 -0.135478 0)
(-0.0168849 -0.178638 0)
(0.0111128 -0.258659 0)
(0.00771006 0.12268 0)
(0.0152287 0.157577 0)
(0.0211009 0.154131 0)
(0.0221783 0.131795 0)
(0.0230114 0.0998168 0)
(0.0200434 0.0739764 0)
(0.0194222 0.0547913 0)
(0.0179616 0.0394523 0)
(0.0173549 0.025666 0)
(0.0162419 0.0133747 0)
(0.0149074 0.00181171 0)
(0.0147646 -0.00945298 0)
(0.0127012 -0.0221229 0)
(0.0139026 -0.0357422 0)
(0.00929126 -0.0544625 0)
(0.01411 -0.073819 0)
(0.000245511 -0.103735 0)
(0.016089 -0.129993 0)
(-0.0155575 -0.174696 0)
(0.0130998 -0.261232 0)
(0.0113851 0.111 0)
(0.0220559 0.148812 0)
(0.030976 0.147844 0)
(0.0339579 0.131792 0)
(0.0356872 0.0982145 0)
(0.032926 0.0729507 0)
(0.0321316 0.0539464 0)
(0.0309846 0.0387991 0)
(0.0303919 0.0254394 0)
(0.0297895 0.0134839 0)
(0.0278757 0.00223329 0)
(0.0275678 -0.00899487 0)
(0.0244842 -0.0210937 0)
(0.0246532 -0.0351513 0)
(0.0194097 -0.0529096 0)
(0.0215894 -0.0729084 0)
(0.00791435 -0.101628 0)
(0.0199822 -0.126845 0)
(-0.0144225 -0.169936 0)
(0.0167129 -0.261996 0)
(0.0132785 0.0868662 0)
(0.0291953 0.137811 0)
(0.0423503 0.140949 0)
(0.0463431 0.13122 0)
(0.0497238 0.103964 0)
(0.0478807 0.0761549 0)
(0.0466858 0.0559864 0)
(0.0458366 0.0406424 0)
(0.0450765 0.0275571 0)
(0.0452002 0.015806 0)
(0.0428653 0.004748 0)
(0.0424394 -0.00641484 0)
(0.0384419 -0.0182181 0)
(0.0377402 -0.0319915 0)
(0.0316726 -0.0483118 0)
(0.0318206 -0.0676925 0)
(0.0186679 -0.0930498 0)
(0.0263106 -0.11633 0)
(-0.0116098 -0.163105 0)
(0.0202851 -0.25991 0)
(0.0171782 0.0666471 0)
(0.0339913 0.120223 0)
(0.0501994 0.129692 0)
(0.0579158 0.12278 0)
(0.0638588 0.103078 0)
(0.0647463 0.0764304 0)
(0.0642423 0.0550051 0)
(0.0638371 0.0390184 0)
(0.0624367 0.0263354 0)
(0.0628769 0.0153462 0)
(0.0602015 0.00528365 0)
(0.0596627 -0.00511493 0)
(0.0550024 -0.0158783 0)
(0.0533388 -0.0288098 0)
(0.0463655 -0.0436717 0)
(0.0442991 -0.0626506 0)
(0.0308636 -0.0859093 0)
(0.03185 -0.107574 0)
(-0.00902724 -0.154982 0)
(0.0260431 -0.257312 0)
(0.015125 0.026068 0)
(0.0381701 0.103283 0)
(0.0558711 0.118892 0)
(0.0673063 0.115775 0)
(0.0769103 0.101622 0)
(0.0827532 0.0797414 0)
(0.0845592 0.0586995 0)
(0.0862683 0.0415686 0)
(0.0848389 0.0282209 0)
(0.0854858 0.0170324 0)
(0.0822833 0.00757731 0)
(0.0815027 -0.00193821 0)
(0.0761604 -0.0114712 0)
(0.0735292 -0.0231911 0)
(0.0655292 -0.036367 0)
(0.061109 -0.0535802 0)
(0.0464669 -0.072053 0)
(0.0400479 -0.0904236 0)
(-0.00320963 -0.144319 0)
(0.032615 -0.252875 0)
(0.00239888 0.00968815 0)
(0.0306281 0.0733491 0)
(0.0536966 0.0971847 0)
(0.0704433 0.0982185 0)
(0.0858282 0.0892885 0)
(0.0980473 0.0736636 0)
(0.104831 0.0572647 0)
(0.110464 0.0418963 0)
(0.111159 0.0290874 0)
(0.113087 0.017936 0)
(0.110389 0.00871807 0)
(0.10947 -0.000260575 0)
(0.103393 -0.00875397 0)
(0.0992887 -0.0186433 0)
(0.0894488 -0.029258 0)
(0.0809745 -0.0427702 0)
(0.063103 -0.056965 0)
(0.0473017 -0.0753559 0)
(0.00302463 -0.137186 0)
(0.0422326 -0.248281 0)
(-0.020239 -0.00312254 0)
(0.0146275 0.05867 0)
(0.0408004 0.07923 0)
(0.0646875 0.0812585 0)
(0.0859901 0.0752931 0)
(0.106191 0.0634553 0)
(0.118568 0.0507882 0)
(0.130547 0.0395638 0)
(0.134549 0.0301151 0)
(0.139796 0.0213032 0)
(0.13818 0.014151 0)
(0.138328 0.00673407 0)
(0.131584 0.000453854 0)
(0.126678 -0.00723652 0)
(0.113797 -0.0144487 0)
(0.102061 -0.0243373 0)
(0.0797335 -0.0345303 0)
(0.0557709 -0.0538348 0)
(0.0184503 -0.126506 0)
(0.0551818 -0.235139 0)
(-0.0269708 0.0219023 0)
(-0.0175087 0.0217536 0)
(0.0125983 0.0402069 0)
(0.0453204 0.0443694 0)
(0.072609 0.0439463 0)
(0.0999301 0.0385149 0)
(0.118097 0.032704 0)
(0.134361 0.0243193 0)
(0.143394 0.019598 0)
(0.150568 0.013178 0)
(0.152774 0.0104386 0)
(0.152754 0.00476941 0)
(0.148453 0.00325795 0)
(0.143103 -0.00230113 0)
(0.13031 -0.00369585 0)
(0.119377 -0.0106193 0)
(0.0945314 -0.0142809 0)
(0.0783952 -0.0404318 0)
(0.0572254 -0.113879 0)
(0.0794606 -0.184309 0)
(0.0349881 0.0315528 0)
(0.0391346 0.0178204 0)
(0.0567603 0.016317 0)
(0.0907327 0.0183123 0)
(0.118539 0.0202349 0)
(0.148829 0.01929 0)
(0.173249 0.017811 0)
(0.196279 0.0157761 0)
(0.213842 0.0138112 0)
(0.22919 0.0124623 0)
(0.240354 0.0107634 0)
(0.24975 0.0100183 0)
(0.256216 0.00846783 0)
(0.260882 0.0082131 0)
(0.26414 0.00684273 0)
(0.263401 0.00604763 0)
(0.257449 0.00530627 0)
(0.243044 -0.00207913 0)
(0.202971 -0.0141701 0)
(0.149176 -0.0333131 0)
)
;

boundaryField
{
    movingWall
    {
        type            fixedValue;
        value           uniform (1 0 0);
    }
    fixedWalls
    {
        type            noSlip;
    }
    frontAndBack
    {
        type            empty;
    }
}


// ************************************************************************* //
