/*--------------------------------*- C++ -*----------------------------------*\
| =========                 |                                                 |
| \\      /  F ield         | OpenFOAM: The Open Source CFD Toolbox           |
|  \\    /   O peration     | Version:  5.0                                   |
|   \\  /    A nd           | Web:      www.OpenFOAM.org                      |
|    \\/     M anipulation  |                                                 |
\*---------------------------------------------------------------------------*/
FoamFile
{
    version     2.0;
    format      ascii;
    class       volScalarField;
    location    "10";
    object      yPlus;
}
// * * * * * * * * * * * * * * * * * * * * * * * * * * * * * * * * * * * * * //

dimensions      [0 0 0 0 0 0 0];

internalField   uniform 0;

boundaryField
{
    movingWall
    {
        type            calculated;
        value           nonuniform List<scalar> 
20
(
15.5365
15.5002
15.3573
15.0786
14.8467
14.5893
14.3783
14.1764
14.0203
13.8826
13.7815
13.696
13.6366
13.5938
13.5637
13.5704
13.6251
13.7564
14.117
14.59
)
;
    }
    fixedWalls
    {
        type            calculated;
        value           nonuniform List<scalar> 
60
(
1.13996
1.507
1.79946
3.11828
4.03993
4.75832
5.2879
5.60319
5.79795
5.82508
5.75371
5.54351
5.28163
4.68709
4.14805
2.74491
1.57961
2.26266
2.9472
3.43199
1.73427
3.8098
5.37226
6.10556
6.74077
7.11076
7.45014
7.64579
7.84392
7.94546
8.04515
8.08641
8.10137
8.07311
8.04094
7.98388
7.93485
7.77057
7.08358
6.18163
1.13996
1.53817
0.919103
2.18046
4.21083
5.04686
5.7426
6.14812
6.47925
6.67395
6.81587
6.87517
6.8837
6.78173
6.60162
6.26045
5.75778
4.97196
3.90973
1.73427
)
;
    }
    frontAndBack
    {
        type            empty;
    }
}


// ************************************************************************* //
