/*--------------------------------*- C++ -*----------------------------------*\
| =========                 |                                                 |
| \\      /  F ield         | OpenFOAM: The Open Source CFD Toolbox           |
|  \\    /   O peration     | Version:  5.0                                   |
|   \\  /    A nd           | Web:      www.OpenFOAM.org                      |
|    \\/     M anipulation  |                                                 |
\*---------------------------------------------------------------------------*/
FoamFile
{
    version     2.0;
    format      ascii;
    class       volScalarField;
    location    "5";
    object      p;
}
// * * * * * * * * * * * * * * * * * * * * * * * * * * * * * * * * * * * * * //

dimensions      [0 2 -2 0 0 0 0];

internalField   nonuniform List<scalar> 
400
(
3.37981e-08
-5.7479e-05
-0.000166772
-0.00016949
-0.000418428
-0.00132498
-0.00264344
-0.00392865
-0.00500596
-0.0057809
-0.00622792
-0.00632475
-0.00603694
-0.00524055
-0.00369081
-0.00120891
0.00216281
0.00598806
0.00893903
0.0102471
4.09946e-05
-1.03605e-05
-0.000112159
-0.000461933
-0.00118638
-0.00227271
-0.00346722
-0.00463355
-0.00560571
-0.00630496
-0.00671605
-0.00683148
-0.00662941
-0.00601857
-0.00481782
-0.00281595
5.12886e-05
0.00364024
0.00689551
0.00886467
0.000185
-7.65437e-06
-0.000457978
-0.00125673
-0.00238925
-0.00360702
-0.00479409
-0.00589741
-0.00673705
-0.00731441
-0.00763219
-0.00769892
-0.00748888
-0.00697561
-0.00610627
-0.00474067
-0.00264688
0.000258714
0.00343004
0.00568616
0.00016181
-0.000268646
-0.0011492
-0.00242467
-0.00381363
-0.00509939
-0.00616558
-0.00695015
-0.00749849
-0.00786719
-0.00805908
-0.00806198
-0.00787012
-0.00747225
-0.00684627
-0.00593771
-0.00461612
-0.00257069
5.73928e-05
0.00216126
-0.000333064
-0.000945717
-0.00217965
-0.00370166
-0.00509811
-0.00618029
-0.00694253
-0.00749575
-0.00792788
-0.00824635
-0.00842694
-0.0084386
-0.00826147
-0.00789715
-0.00736467
-0.00667893
-0.00585236
-0.00455456
-0.00277925
-0.000943964
-0.00130165
-0.0019749
-0.00333196
-0.00482124
-0.00604332
-0.00684087
-0.00738069
-0.00785016
-0.00828264
-0.008643
-0.00886947
-0.00891656
-0.00876698
-0.00843064
-0.00794409
-0.00736837
-0.00680946
-0.00595916
-0.00488005
-0.0034569
-0.00245542
-0.00312542
-0.00438273
-0.0056923
-0.00667259
-0.00725118
-0.00771775
-0.0082067
-0.0087105
-0.00916553
-0.00947943
-0.00959005
-0.00947488
-0.00915596
-0.00869041
-0.00814236
-0.007719
-0.0071023
-0.00648044
-0.00539936
-0.00351686
-0.00410673
-0.00518923
-0.00631706
-0.00711291
-0.00755915
-0.00803911
-0.00860246
-0.00922633
-0.00981692
-0.0102523
-0.0104511
-0.0103767
-0.0100566
-0.00958132
-0.00899276
-0.00860586
-0.00807446
-0.00769298
-0.00686713
-0.00430319
-0.00482087
-0.00574605
-0.00673014
-0.00741962
-0.00781816
-0.00835403
-0.00902406
-0.00979306
-0.0105346
-0.0110932
-0.0113687
-0.0113343
-0.0110073
-0.0105046
-0.00983106
-0.00940386
-0.00884235
-0.00862302
-0.00792574
-0.00477815
-0.0052326
-0.00605206
-0.00695182
-0.00759638
-0.00801686
-0.00863167
-0.00940461
-0.0103043
-0.0111667
-0.0118138
-0.0121411
-0.0121295
-0.011785
-0.0112545
-0.0104963
-0.0100253
-0.00931176
-0.00927052
-0.00858607
-0.00493342
-0.00535281
-0.00612774
-0.00700164
-0.00765398
-0.00813362
-0.00880341
-0.00965111
-0.0106407
-0.0115681
-0.0122648
-0.0126114
-0.0125983
-0.0122072
-0.011643
-0.0107986
-0.0103317
-0.00936657
-0.00963332
-0.00878628
-0.00478703
-0.005221
-0.00598849
-0.00688636
-0.00756904
-0.0081066
-0.00880902
-0.00968705
-0.0106995
-0.011646
-0.0123602
-0.0127125
-0.0126822
-0.0122489
-0.0116066
-0.0107183
-0.0101766
-0.00903416
-0.00961401
-0.0084687
-0.00444123
-0.00489975
-0.00566087
-0.00656546
-0.00731224
-0.00789927
-0.00860855
-0.00947171
-0.0104547
-0.0113877
-0.0120898
-0.0124284
-0.0123746
-0.0118907
-0.0111687
-0.0102445
-0.00958005
-0.00837442
-0.00910607
-0.00761514
-0.0040149
-0.0044869
-0.00519156
-0.0060362
-0.00685211
-0.00749916
-0.00819854
-0.00901454
-0.00993307
-0.0108077
-0.0114669
-0.0117711
-0.0116865
-0.0111641
-0.0103821
-0.00942596
-0.00862592
-0.00746028
-0.00815769
-0.00632486
-0.00365301
-0.0040503
-0.00461405
-0.00532162
-0.00616366
-0.0068975
-0.00760452
-0.00836561
-0.0092001
-0.00998572
-0.0105794
-0.0108402
-0.0107308
-0.0101895
-0.00936256
-0.00835995
-0.00742101
-0.00633781
-0.00692193
-0.00467709
-0.0035748
-0.00370271
-0.00394895
-0.00444649
-0.00523695
-0.00607634
-0.00686533
-0.00763087
-0.00840627
-0.00911106
-0.00963261
-0.00984013
-0.00969432
-0.00914812
-0.0082801
-0.00720886
-0.00614198
-0.00510748
-0.00548547
-0.00270868
-0.00364277
-0.00344286
-0.00321263
-0.0034393
-0.00413612
-0.00506142
-0.00599031
-0.00684899
-0.00764257
-0.00832045
-0.00880719
-0.00898968
-0.00881934
-0.00824476
-0.0073186
-0.00613377
-0.00494776
-0.00383787
-0.00383831
-0.000259858
-0.00348437
-0.00294082
-0.00232978
-0.00232144
-0.00294741
-0.00394424
-0.00501571
-0.00600869
-0.0068834
-0.00759067
-0.00807032
-0.0082415
-0.00804939
-0.00747045
-0.00651122
-0.00524604
-0.00387457
-0.00251617
-0.0015463
0.00410529
-0.00309237
-0.00231082
-0.00149722
-0.00136781
-0.00196546
-0.00300032
-0.00418708
-0.00530492
-0.00627244
-0.00703285
-0.00753865
-0.00773952
-0.0075661
-0.00700114
-0.00603092
-0.00470067
-0.00309289
-0.000819751
0.00386911
0.0161633
-0.00457031
-0.00161525
-0.000605042
-0.000643182
-0.00127153
-0.00234528
-0.00361241
-0.0048466
-0.00589253
-0.00670752
-0.00724591
-0.00749376
-0.00739094
-0.00689956
-0.00590138
-0.00432592
-0.0015807
0.004383
0.0176165
0.0397922
)
;

boundaryField
{
    movingWall
    {
        type            zeroGradient;
    }
    fixedWalls
    {
        type            zeroGradient;
    }
    frontAndBack
    {
        type            empty;
    }
}


// ************************************************************************* //
