/*--------------------------------*- C++ -*----------------------------------*\
| =========                 |                                                 |
| \\      /  F ield         | OpenFOAM: The Open Source CFD Toolbox           |
|  \\    /   O peration     | Version:  5.0                                   |
|   \\  /    A nd           | Web:      www.OpenFOAM.org                      |
|    \\/     M anipulation  |                                                 |
\*---------------------------------------------------------------------------*/
FoamFile
{
    version     2.0;
    format      ascii;
    class       surfaceScalarField;
    location    "5";
    object      phi;
}
// * * * * * * * * * * * * * * * * * * * * * * * * * * * * * * * * * * * * * //

dimensions      [0 3 -1 0 0 0 0];

internalField   nonuniform List<scalar> 
760
(
1.90505e-07
-1.90509e-07
1.42885e-07
4.76203e-08
-3.03426e-07
4.46311e-07
-1.3659e-06
1.06247e-06
-2.81345e-06
1.44755e-06
-4.14386e-06
1.33042e-06
-5.26009e-06
1.11623e-06
-6.1221e-06
8.62009e-07
-6.78836e-06
6.66257e-07
-7.27757e-06
4.89211e-07
-7.61781e-06
3.40245e-07
-7.81679e-06
1.98973e-07
-7.85791e-06
4.11178e-08
-7.73487e-06
-1.23035e-07
-7.40285e-06
-3.32017e-07
-6.75937e-06
-6.43486e-07
-5.63138e-06
-1.12798e-06
-3.89197e-06
-1.73941e-06
-1.66004e-06
-2.23193e-06
-1.66004e-06
-1.77985e-07
-1.25231e-08
-8.78722e-07
7.48357e-07
-2.18723e-06
1.75482e-06
-3.65062e-06
2.52586e-06
-4.71394e-06
2.51088e-06
-5.57111e-06
2.18758e-06
-6.25255e-06
1.79768e-06
-6.81203e-06
1.42148e-06
-7.24053e-06
1.09476e-06
-7.52355e-06
7.72235e-07
-7.68777e-06
5.0446e-07
-7.70268e-06
2.13882e-07
-7.60475e-06
-5.68075e-08
-7.40401e-06
-3.23778e-07
-7.07825e-06
-6.57773e-07
-6.54282e-06
-1.17892e-06
-5.68418e-06
-1.98662e-06
-4.26393e-06
-3.15966e-06
-2.21733e-06
-4.27853e-06
-3.87737e-06
-7.01506e-07
6.88983e-07
-1.90796e-06
1.95481e-06
-3.21296e-06
3.05982e-06
-4.16433e-06
3.47723e-06
-4.85069e-06
3.19724e-06
-5.35713e-06
2.69401e-06
-5.63847e-06
2.07902e-06
-5.76681e-06
1.54983e-06
-5.7092e-06
1.03715e-06
-5.61516e-06
6.78197e-07
-5.49735e-06
3.86646e-07
-5.41496e-06
1.31496e-07
-5.333e-06
-1.38776e-07
-5.19718e-06
-4.59594e-07
-4.99924e-06
-8.55712e-07
-4.71511e-06
-1.46305e-06
-4.31163e-06
-2.3901e-06
-3.53677e-06
-3.93452e-06
-2.11164e-06
-5.70366e-06
-5.98902e-06
-1.04146e-06
1.73045e-06
-2.2978e-06
3.21114e-06
-3.28297e-06
4.04499e-06
-3.89356e-06
4.08783e-06
-4.19067e-06
3.49435e-06
-4.15255e-06
2.65589e-06
-3.93419e-06
1.86066e-06
-3.71648e-06
1.33212e-06
-3.62071e-06
9.41372e-07
-3.58944e-06
6.46933e-07
-3.57382e-06
3.7102e-07
-3.53397e-06
9.1653e-08
-3.44818e-06
-2.24568e-07
-3.31243e-06
-5.95349e-07
-3.14292e-06
-1.02522e-06
-2.98197e-06
-1.62401e-06
-2.82064e-06
-2.55143e-06
-2.46435e-06
-4.29081e-06
-1.58878e-06
-6.57922e-06
-7.5778e-06
-1.07273e-06
2.80318e-06
-2.09129e-06
4.2297e-06
-2.7235e-06
4.67719e-06
-3.02748e-06
4.39181e-06
-2.96283e-06
3.4297e-06
-2.73358e-06
2.42664e-06
-2.58535e-06
1.71243e-06
-2.58999e-06
1.33676e-06
-2.69502e-06
1.0464e-06
-2.82821e-06
7.80132e-07
-2.9163e-06
4.59105e-07
-2.91628e-06
9.16388e-08
-2.80253e-06
-3.3832e-07
-2.58584e-06
-8.1204e-07
-2.3026e-06
-1.30846e-06
-2.0169e-06
-1.90971e-06
-1.81808e-06
-2.75024e-06
-1.77339e-06
-4.3355e-06
-1.204e-06
-7.1486e-06
-8.7818e-06
-8.86076e-07
3.68925e-06
-1.59793e-06
4.94155e-06
-2.0187e-06
5.09797e-06
-2.12561e-06
4.49872e-06
-1.97737e-06
3.28147e-06
-1.83012e-06
2.27938e-06
-1.89675e-06
1.77906e-06
-2.11543e-06
1.55545e-06
-2.39278e-06
1.32375e-06
-2.6334e-06
1.02075e-06
-2.77031e-06
5.96015e-07
-2.76384e-06
8.51666e-08
-2.61762e-06
-4.84538e-07
-2.34937e-06
-1.08029e-06
-1.99339e-06
-1.66444e-06
-1.59267e-06
-2.31043e-06
-1.23548e-06
-3.10744e-06
-1.07339e-06
-4.4976e-06
-8.91783e-07
-7.33021e-06
-9.67359e-06
-6.14861e-07
4.30412e-06
-1.06901e-06
5.3957e-06
-1.3308e-06
5.35976e-06
-1.3659e-06
4.53382e-06
-1.27136e-06
3.18692e-06
-1.34059e-06
2.34861e-06
-1.59255e-06
2.03102e-06
-1.93972e-06
1.90262e-06
-2.28631e-06
1.67033e-06
-2.56937e-06
1.30381e-06
-2.73381e-06
7.60453e-07
-2.72613e-06
7.74934e-08
-2.57056e-06
-6.40113e-07
-2.27594e-06
-1.37491e-06
-1.86974e-06
-2.07063e-06
-1.41952e-06
-2.76065e-06
-1.01373e-06
-3.51322e-06
-8.07386e-07
-4.70394e-06
-6.69712e-07
-7.46788e-06
-1.03433e-05
-3.30027e-07
4.63414e-06
-6.30831e-07
5.6965e-06
-8.1465e-07
5.54358e-06
-8.44511e-07
4.56368e-06
-8.48238e-07
3.19065e-06
-1.03492e-06
2.53529e-06
-1.36461e-06
2.36071e-06
-1.73294e-06
2.27096e-06
-2.0843e-06
2.02169e-06
-2.35122e-06
1.57073e-06
-2.49393e-06
9.03162e-07
-2.48931e-06
7.28754e-08
-2.3533e-06
-7.76128e-07
-2.08184e-06
-1.64637e-06
-1.69077e-06
-2.46171e-06
-1.24683e-06
-3.2046e-06
-8.11314e-07
-3.94873e-06
-5.66502e-07
-4.94875e-06
-5.29672e-07
-7.50471e-06
-1.0873e-05
-1.22908e-07
4.75705e-06
-2.5766e-07
5.83125e-06
-3.40181e-07
5.62611e-06
-3.8317e-07
4.60667e-06
-4.71909e-07
3.27939e-06
-6.97352e-07
2.76074e-06
-1.03972e-06
2.70308e-06
-1.39008e-06
2.62132e-06
-1.69563e-06
2.32723e-06
-1.90001e-06
1.77512e-06
-1.99417e-06
9.97324e-07
-1.98526e-06
6.39591e-08
-1.89074e-06
-8.7064e-07
-1.69986e-06
-1.83725e-06
-1.40095e-06
-2.76061e-06
-1.03655e-06
-3.569e-06
-6.73301e-07
-4.31198e-06
-4.47765e-07
-5.17429e-06
-4.041e-07
-7.54837e-06
-1.12771e-05
9.78424e-08
4.65921e-06
5.42911e-08
5.8748e-06
3.82364e-09
5.67657e-06
-2.90508e-08
4.63954e-06
-1.51604e-07
3.40194e-06
-3.63113e-07
2.97225e-06
-6.26591e-07
2.96656e-06
-8.71775e-07
2.8665e-06
-1.06758e-06
2.52304e-06
-1.1869e-06
1.89443e-06
-1.24047e-06
1.05089e-06
-1.23593e-06
5.94209e-08
-1.17472e-06
-9.3185e-07
-1.06942e-06
-1.94255e-06
-9.1703e-07
-2.913e-06
-6.92996e-07
-3.79303e-06
-4.40023e-07
-4.56495e-06
-2.80354e-07
-5.33396e-06
-3.39598e-07
-7.48913e-06
-1.16167e-05
2.68417e-07
4.39079e-06
3.82801e-07
5.76042e-06
4.37314e-07
5.62206e-06
3.60945e-07
4.71591e-06
2.36723e-07
3.52616e-06
8.50206e-08
3.12395e-06
-6.21897e-08
3.11377e-06
-1.89585e-07
2.9939e-06
-2.822e-07
2.61565e-06
-3.33532e-07
1.94577e-06
-3.63421e-07
1.08078e-06
-3.84978e-07
8.09778e-08
-3.6578e-07
-9.51048e-07
-3.39226e-07
-1.9691e-06
-3.01249e-07
-2.95098e-06
-2.84403e-07
-3.80988e-06
-1.64582e-07
-4.68477e-06
-1.4168e-07
-5.35686e-06
-2.5482e-07
-7.37599e-06
-1.18715e-05
4.40526e-07
3.95027e-06
6.69829e-07
5.53112e-06
7.89986e-07
5.5019e-06
7.30761e-07
4.77514e-06
6.36812e-07
3.62011e-06
5.95105e-07
3.16565e-06
5.91325e-07
3.11755e-06
6.0165e-07
2.98357e-06
6.04244e-07
2.61306e-06
6.03056e-07
1.94695e-06
5.90038e-07
1.0938e-06
5.43055e-07
1.27961e-07
4.95715e-07
-9.03708e-07
4.37252e-07
-1.91064e-06
3.63881e-07
-2.87761e-06
2.13953e-07
-3.65995e-06
1.60467e-07
-4.63129e-06
-2.73796e-08
-5.16902e-06
-2.01899e-07
-7.20147e-06
-1.20734e-05
6.45345e-07
3.30492e-06
9.81731e-07
5.19473e-06
1.19286e-06
5.29077e-06
1.16841e-06
4.79959e-06
1.0934e-06
3.69512e-06
1.13635e-06
3.1227e-06
1.26635e-06
2.98755e-06
1.40703e-06
2.84289e-06
1.51746e-06
2.50263e-06
1.58006e-06
1.88436e-06
1.58522e-06
1.08864e-06
1.51712e-06
1.96062e-07
1.40235e-06
-7.88935e-07
1.25495e-06
-1.76324e-06
1.00575e-06
-2.62841e-06
7.84891e-07
-3.43909e-06
4.70278e-07
-4.31667e-06
1.32756e-07
-4.83149e-06
-5.74602e-08
-7.01126e-06
-1.21308e-05
7.78552e-07
2.52637e-06
1.2377e-06
4.73558e-06
1.52534e-06
5.00314e-06
1.63913e-06
4.6858e-06
1.57757e-06
3.75668e-06
1.66245e-06
3.03781e-06
1.89597e-06
2.75404e-06
2.15819e-06
2.58067e-06
2.38045e-06
2.28037e-06
2.50853e-06
1.75627e-06
2.536e-06
1.06117e-06
2.46548e-06
2.66585e-07
2.29543e-06
-6.18886e-07
2.04531e-06
-1.51313e-06
1.68889e-06
-2.27199e-06
1.31302e-06
-3.06323e-06
7.94501e-07
-3.79815e-06
3.60453e-07
-4.39745e-06
6.33429e-08
-6.71415e-06
-1.20675e-05
9.61641e-07
1.56473e-06
1.45903e-06
4.23819e-06
1.82021e-06
4.64196e-06
2.06793e-06
4.43809e-06
2.10044e-06
3.72417e-06
2.1993e-06
2.93895e-06
2.45653e-06
2.49682e-06
2.7897e-06
2.2475e-06
3.10178e-06
1.96829e-06
3.31178e-06
1.54627e-06
3.38584e-06
9.87107e-07
3.3284e-06
3.2403e-07
3.10713e-06
-3.97617e-07
2.77143e-06
-1.17743e-06
2.30839e-06
-1.80894e-06
1.80267e-06
-2.55751e-06
1.1556e-06
-3.15108e-06
5.69309e-07
-3.81116e-06
1.92186e-07
-6.33702e-06
-1.18753e-05
8.44009e-07
7.20719e-07
1.51207e-06
3.57013e-06
2.01427e-06
4.13976e-06
2.43894e-06
4.01341e-06
2.65992e-06
3.50319e-06
2.78786e-06
2.81101e-06
3.00246e-06
2.28221e-06
3.30455e-06
1.94541e-06
3.6247e-06
1.64814e-06
3.86888e-06
1.30209e-06
3.97823e-06
8.77752e-07
3.9417e-06
3.60567e-07
3.71753e-06
-1.73449e-07
3.34747e-06
-8.07372e-07
2.84357e-06
-1.30504e-06
2.24694e-06
-1.96088e-06
1.49992e-06
-2.40406e-06
7.82127e-07
-3.09336e-06
3.78947e-07
-5.93384e-06
-1.14964e-05
3.69647e-07
3.51072e-07
1.24787e-06
2.6919e-06
2.00536e-06
3.38228e-06
2.66438e-06
3.35439e-06
3.14829e-06
3.01927e-06
3.45103e-06
2.50827e-06
3.70482e-06
2.02843e-06
3.972e-06
1.67822e-06
4.23934e-06
1.3808e-06
4.45524e-06
1.08619e-06
4.56235e-06
7.70641e-07
4.53685e-06
3.86064e-07
4.31631e-06
4.70939e-08
3.95043e-06
-4.41492e-07
3.40655e-06
-7.61167e-07
2.7212e-06
-1.27553e-06
1.87186e-06
-1.55472e-06
1.08897e-06
-2.31047e-06
6.99923e-07
-5.5448e-06
-1.07964e-05
-2.67989e-07
6.19062e-07
6.87514e-07
1.7364e-06
1.60611e-06
2.46368e-06
2.52749e-06
2.43301e-06
3.29909e-06
2.24767e-06
3.87935e-06
1.92801e-06
4.31641e-06
1.59137e-06
4.67252e-06
1.32211e-06
4.95164e-06
1.10168e-06
5.1506e-06
8.87233e-07
5.22818e-06
6.93057e-07
5.16711e-06
4.47138e-07
4.97219e-06
2.42013e-07
4.57681e-06
-4.61083e-08
4.0204e-06
-2.04765e-07
3.23269e-06
-4.87814e-07
2.34999e-06
-6.72018e-07
1.69979e-06
-1.66027e-06
1.23394e-06
-5.07895e-06
-9.56251e-06
-1.11114e-06
1.7302e-06
-3.74692e-07
9.99946e-07
8.98145e-07
1.19084e-06
2.0927e-06
1.23845e-06
3.12494e-06
1.21544e-06
3.95292e-06
1.10004e-06
4.57489e-06
9.69402e-07
5.0753e-06
8.21696e-07
5.44103e-06
7.35951e-07
5.7134e-06
6.14863e-07
5.8575e-06
5.48954e-07
5.86844e-06
4.36204e-07
5.72105e-06
3.89401e-07
5.40837e-06
2.66567e-07
4.97733e-06
2.2628e-07
4.43338e-06
5.61362e-08
3.94338e-06
-1.82016e-07
3.53166e-06
-1.24856e-06
2.47827e-06
-4.02556e-06
-7.08423e-06
1.7302e-06
2.73015e-06
3.92099e-06
5.15944e-06
6.37488e-06
7.47492e-06
8.44432e-06
9.26602e-06
1.0002e-05
1.06168e-05
1.11658e-05
1.1602e-05
1.19914e-05
1.2258e-05
1.24842e-05
1.25404e-05
1.23584e-05
1.11098e-05
7.08423e-06
)
;

boundaryField
{
    movingWall
    {
        type            calculated;
        value           uniform 0;
    }
    fixedWalls
    {
        type            calculated;
        value           uniform 0;
    }
    frontAndBack
    {
        type            empty;
        value           nonuniform 0();
    }
}


// ************************************************************************* //
