/*--------------------------------*- C++ -*----------------------------------*\
| =========                 |                                                 |
| \\      /  F ield         | OpenFOAM: The Open Source CFD Toolbox           |
|  \\    /   O peration     | Version:  5.0                                   |
|   \\  /    A nd           | Web:      www.OpenFOAM.org                      |
|    \\/     M anipulation  |                                                 |
\*---------------------------------------------------------------------------*/
FoamFile
{
    version     2.0;
    format      ascii;
    class       volVectorField;
    location    "5";
    object      U;
}
// * * * * * * * * * * * * * * * * * * * * * * * * * * * * * * * * * * * * * //

dimensions      [0 1 -1 0 0 0 0];

internalField   nonuniform List<vector> 
400
(
(0.00196897 -0.00296399 0)
(0.00552811 -0.00195318 0)
(-0.000443186 0.000730119 0)
(-0.0103303 0.00608354 0)
(-0.0412371 0.0144066 0)
(-0.0744278 0.0137805 0)
(-0.0965815 0.0115679 0)
(-0.117098 0.0106958 0)
(-0.130075 0.00840835 0)
(-0.142288 0.00767037 0)
(-0.149303 0.00576839 0)
(-0.155562 0.00501821 0)
(-0.158318 0.00317715 0)
(-0.159036 0.0015401 0)
(-0.153662 -0.00175157 0)
(-0.142241 -0.00531589 0)
(-0.121963 -0.0119918 0)
(-0.0925603 -0.0172457 0)
(-0.0561366 -0.0194014 0)
(-0.013212 -0.00651307 0)
(0.000220521 -0.00508289 0)
(-0.00743802 0.00414069 0)
(-0.0260496 0.0190083 0)
(-0.059526 0.038333 0)
(-0.0869195 0.0406753 0)
(-0.105739 0.0358232 0)
(-0.119595 0.0307364 0)
(-0.132864 0.0224141 0)
(-0.141104 0.0174255 0)
(-0.148731 0.0113808 0)
(-0.152184 0.00729996 0)
(-0.155386 0.00225449 0)
(-0.154762 -0.00203611 0)
(-0.153385 -0.00763096 0)
(-0.147619 -0.0139895 0)
(-0.138042 -0.0243571 0)
(-0.120894 -0.038706 0)
(-0.0967835 -0.0586222 0)
(-0.0655333 -0.0747536 0)
(-0.0180517 -0.0566081 0)
(-0.00403713 0.00484282 0)
(-0.0231803 0.0274479 0)
(-0.0516602 0.0501611 0)
(-0.0772518 0.0605099 0)
(-0.0931282 0.0568636 0)
(-0.103245 0.0490075 0)
(-0.111917 0.038076 0)
(-0.115867 0.0304083 0)
(-0.114636 0.0223407 0)
(-0.113502 0.0159463 0)
(-0.110688 0.00997544 0)
(-0.109341 0.00442466 0)
(-0.107439 -0.00114002 0)
(-0.107014 -0.00729055 0)
(-0.103948 -0.0152489 0)
(-0.100191 -0.0275611 0)
(-0.0909063 -0.0476111 0)
(-0.0754159 -0.0771554 0)
(-0.0574705 -0.107092 0)
(-0.0198656 -0.10835 0)
(-0.00788623 0.0246324 0)
(-0.0334725 0.0527984 0)
(-0.0595663 0.0721187 0)
(-0.0751808 0.0750312 0)
(-0.0838758 0.0667818 0)
(-0.0859067 0.0541045 0)
(-0.0814985 0.0409394 0)
(-0.0747666 0.0291157 0)
(-0.0725964 0.0198781 0)
(-0.0717976 0.0129747 0)
(-0.0715297 0.00722414 0)
(-0.0710827 0.00197683 0)
(-0.07001 -0.00327971 0)
(-0.0680936 -0.0093066 0)
(-0.0657559 -0.0168068 0)
(-0.0624167 -0.0283987 0)
(-0.0607231 -0.0478173 0)
(-0.0498601 -0.0841976 0)
(-0.042347 -0.126165 0)
(-0.0149582 -0.138791 0)
(-0.0076356 0.0444585 0)
(-0.0350887 0.0745308 0)
(-0.0516412 0.0867205 0)
(-0.0612487 0.08473 0)
(-0.0626036 0.0699139 0)
(-0.0561038 0.0524104 0)
(-0.0512665 0.0361224 0)
(-0.0505224 0.0268079 0)
(-0.0530071 0.0198196 0)
(-0.0554741 0.014357 0)
(-0.0581005 0.00854843 0)
(-0.0584409 0.00207276 0)
(-0.05761 -0.00505749 0)
(-0.0536737 -0.0131676 0)
(-0.0491874 -0.0220051 0)
(-0.0432645 -0.0332319 0)
(-0.0407377 -0.0498918 0)
(-0.0317406 -0.0835239 0)
(-0.0359806 -0.139524 0)
(-0.00598495 -0.166777 0)
(-0.00670859 0.0642422 0)
(-0.0288035 0.0915468 0)
(-0.0386781 0.0973147 0)
(-0.045541 0.0891366 0)
(-0.0416659 0.0684868 0)
(-0.0351436 0.0471868 0)
(-0.0358055 0.034947 0)
(-0.039774 0.0287205 0)
(-0.0458818 0.0236307 0)
(-0.0510841 0.0180245 0)
(-0.0549596 0.0106446 0)
(-0.0555923 0.00197236 0)
(-0.054156 -0.00773055 0)
(-0.0494172 -0.0182606 0)
(-0.043169 -0.0288884 0)
(-0.0350623 -0.0411797 0)
(-0.0314937 -0.0569546 0)
(-0.016988 -0.0854132 0)
(-0.0271843 -0.143186 0)
(-0.00325638 -0.183855 0)
(-0.00512116 0.0798382 0)
(-0.0203285 0.102548 0)
(-0.0254355 0.104288 0)
(-0.0306515 0.0911693 0)
(-0.0250984 0.0650974 0)
(-0.0232716 0.0461999 0)
(-0.0288045 0.0376641 0)
(-0.035586 0.0342644 0)
(-0.0434343 0.0296392 0)
(-0.049649 0.0229444 0)
(-0.053985 0.0133608 0)
(-0.0550733 0.00142469 0)
(-0.053124 -0.0115824 0)
(-0.0482072 -0.0248875 0)
(-0.0412776 -0.0376713 0)
(-0.0311776 -0.0509172 0)
(-0.0283591 -0.0662195 0)
(-0.0104612 -0.0920747 0)
(-0.0242341 -0.148216 0)
(0.00168272 -0.200645 0)
(-0.00198527 0.0894115 0)
(-0.0119307 0.111337 0)
(-0.0155573 0.109644 0)
(-0.0193491 0.0913076 0)
(-0.0146005 0.0635842 0)
(-0.016921 0.0486201 0)
(-0.0240963 0.0434823 0)
(-0.0314155 0.0412382 0)
(-0.0395988 0.0362767 0)
(-0.0456749 0.0281598 0)
(-0.0495353 0.0160811 0)
(-0.0501124 0.00129529 0)
(-0.0485147 -0.0152378 0)
(-0.0438175 -0.031676 0)
(-0.0380343 -0.0468051 0)
(-0.0266814 -0.0610772 0)
(-0.0259391 -0.0756318 0)
(-0.00447706 -0.0964808 0)
(-0.0205286 -0.149111 0)
(0.00274431 -0.211272 0)
(-9.2855e-06 0.0949436 0)
(-0.00540277 0.115202 0)
(-0.00620506 0.111521 0)
(-0.00888533 0.0918135 0)
(-0.00620077 0.0641139 0)
(-0.0107339 0.0521242 0)
(-0.0175922 0.0498374 0)
(-0.0249539 0.0480868 0)
(-0.0324548 0.0427794 0)
(-0.0373917 0.0327364 0)
(-0.0400424 0.0183809 0)
(-0.0396345 0.00115551 0)
(-0.0388054 -0.017586 0)
(-0.0349501 -0.0366593 0)
(-0.0320596 -0.0543919 0)
(-0.0207856 -0.0697343 0)
(-0.0233547 -0.0842827 0)
(-0.00115254 -0.103442 0)
(-0.0192699 -0.151106 0)
(0.00598593 -0.222664 0)
(0.00291 0.0949721 0)
(0.000626613 0.118663 0)
(0.0010066 0.113995 0)
(-0.00102004 0.091959 0)
(1.63476e-05 0.0665462 0)
(-0.00494516 0.0571674 0)
(-0.0101305 0.0565129 0)
(-0.015691 0.0547178 0)
(-0.0208433 0.0481065 0)
(-0.023672 0.0361621 0)
(-0.0250464 0.0199311 0)
(-0.0245372 0.00103861 0)
(-0.0241552 -0.0189182 0)
(-0.0210938 -0.0393022 0)
(-0.021772 -0.0589767 0)
(-0.0119417 -0.0759883 0)
(-0.0183701 -0.0906854 0)
(0.00352128 -0.106096 0)
(-0.0173715 -0.151006 0)
(0.00665962 -0.229541 0)
(0.0047957 0.0917519 0)
(0.00547211 0.116835 0)
(0.00854274 0.112789 0)
(0.00739666 0.0927721 0)
(0.00762047 0.0681702 0)
(0.00309582 0.06016 0)
(0.000185311 0.0604199 0)
(-0.00294375 0.0580432 0)
(-0.00554654 0.050862 0)
(-0.00672504 0.0380014 0)
(-0.007464 0.0209438 0)
(-0.00709601 0.00114041 0)
(-0.00800746 -0.0193776 0)
(-0.0053934 -0.0395372 0)
(-0.00904452 -0.059386 0)
(-0.00100186 -0.0771053 0)
(-0.012581 -0.0944366 0)
(0.00838209 -0.107871 0)
(-0.0166108 -0.150133 0)
(0.00951412 -0.236491 0)
(0.00603219 0.0857134 0)
(0.0107451 0.115189 0)
(0.0146158 0.112826 0)
(0.0149237 0.0950834 0)
(0.0152464 0.0718761 0)
(0.0120809 0.0633649 0)
(0.0115448 0.0629783 0)
(0.0113973 0.0606392 0)
(0.0112698 0.0529351 0)
(0.0116322 0.0392559 0)
(0.0114315 0.0218611 0)
(0.0119994 0.00202894 0)
(0.00994498 -0.0189186 0)
(0.0111532 -0.0392488 0)
(0.00576904 -0.058824 0)
(0.0107588 -0.0747578 0)
(-0.00411371 -0.0944795 0)
(0.0131973 -0.104918 0)
(-0.0159995 -0.147362 0)
(0.0112908 -0.239672 0)
(0.00891867 0.0744462 0)
(0.0155909 0.108048 0)
(0.0221519 0.108072 0)
(0.0233214 0.0957605 0)
(0.0239183 0.0719999 0)
(0.0220906 0.0626722 0)
(0.0235063 0.0614019 0)
(0.0260856 0.0587427 0)
(0.0281961 0.0517933 0)
(0.0304435 0.0386525 0)
(0.0311191 0.0220032 0)
(0.0319727 0.00316786 0)
(0.029152 -0.0167708 0)
(0.0290429 -0.0364895 0)
(0.0210264 -0.0547437 0)
(0.0220876 -0.0714542 0)
(0.00594012 -0.0889256 0)
(0.0175487 -0.09987 0)
(-0.0155066 -0.141436 0)
(0.0152781 -0.241804 0)
(0.00933583 0.0605087 0)
(0.0200045 0.10208 0)
(0.028314 0.104415 0)
(0.0310343 0.0966679 0)
(0.0331142 0.0752355 0)
(0.0323013 0.0625231 0)
(0.0349807 0.0590782 0)
(0.0397583 0.0563212 0)
(0.0442217 0.0498118 0)
(0.0485223 0.038203 0)
(0.049738 0.0227326 0)
(0.0513327 0.00520914 0)
(0.0475862 -0.0135508 0)
(0.0468635 -0.0322263 0)
(0.0361572 -0.0483941 0)
(0.034482 -0.0644301 0)
(0.0146263 -0.0813637 0)
(0.0228278 -0.0923647 0)
(-0.0139143 -0.136286 0)
(0.0187791 -0.240892 0)
(0.0131555 0.043302 0)
(0.0233567 0.0897101 0)
(0.0345375 0.0963765 0)
(0.038154 0.0914587 0)
(0.0422172 0.0753754 0)
(0.0432369 0.0594119 0)
(0.0459319 0.0524866 0)
(0.0516101 0.049047 0)
(0.0575336 0.0437833 0)
(0.0639874 0.0343875 0)
(0.0661281 0.0216196 0)
(0.0685315 0.0064143 0)
(0.0646201 -0.00973474 0)
(0.0625055 -0.0261695 0)
(0.0500778 -0.0400867 0)
(0.0453085 -0.0555358 0)
(0.0241833 -0.0682446 0)
(0.028238 -0.0818088 0)
(-0.0124597 -0.129984 0)
(0.0245125 -0.240468 0)
(0.00852228 0.0173246 0)
(0.0251298 0.0783163 0)
(0.0371348 0.0891544 0)
(0.0443362 0.086523 0)
(0.0503603 0.0751428 0)
(0.0542661 0.0593527 0)
(0.0571733 0.0483618 0)
(0.0624317 0.0421545 0)
(0.0675649 0.0366724 0)
(0.074956 0.0293246 0)
(0.0774023 0.0195935 0)
(0.0808066 0.00765977 0)
(0.0766888 -0.00480417 0)
(0.0744681 -0.0188997 0)
(0.0615518 -0.0299591 0)
(0.0552873 -0.0442383 0)
(0.0340182 -0.0550985 0)
(0.0320885 -0.0694242 0)
(-0.00904154 -0.123424 0)
(0.0308053 -0.238446 0)
(-0.00269734 0.0093905 0)
(0.0185036 0.0604317 0)
(0.0346335 0.0748629 0)
(0.0464018 0.0745736 0)
(0.0571209 0.0668367 0)
(0.0655882 0.0549935 0)
(0.0705762 0.0440359 0)
(0.0766469 0.0359531 0)
(0.0803393 0.0292507 0)
(0.0869989 0.0226562 0)
(0.0888689 0.0151254 0)
(0.092395 0.00629214 0)
(0.0885441 -0.00254973 0)
(0.0863202 -0.0130602 0)
(0.0739787 -0.0211803 0)
(0.065947 -0.0322386 0)
(0.0444015 -0.0395998 0)
(0.0362365 -0.0546381 0)
(-0.00245873 -0.119366 0)
(0.0402741 -0.237144 0)
(-0.0155857 0.00447533 0)
(0.00638499 0.0493188 0)
(0.0239948 0.063413 0)
(0.0412962 0.0632669 0)
(0.0568177 0.0575673 0)
(0.0715928 0.0485533 0)
(0.0809463 0.0399303 0)
(0.0901858 0.0335406 0)
(0.0948062 0.0278565 0)
(0.101168 0.0222896 0)
(0.102711 0.0169931 0)
(0.105353 0.0101757 0)
(0.101647 0.0048244 0)
(0.0984244 -0.00339771 0)
(0.086915 -0.00774068 0)
(0.0772869 -0.0169595 0)
(0.0541135 -0.0206293 0)
(0.0433715 -0.0410184 0)
(0.0120086 -0.117398 0)
(0.0530081 -0.227792 0)
(-0.0216907 0.0249952 0)
(-0.0194897 0.0205963 0)
(0.00665242 0.033335 0)
(0.0299939 0.0350519 0)
(0.0511391 0.0334497 0)
(0.0709515 0.0300046 0)
(0.0843805 0.0251152 0)
(0.0969567 0.0207269 0)
(0.104409 0.0172778 0)
(0.111794 0.014019 0)
(0.115092 0.011101 0)
(0.117947 0.00769776 0)
(0.116455 0.00505267 0)
(0.113243 0.00178678 0)
(0.104569 -0.000283138 0)
(0.0964039 -0.003776 0)
(0.0765837 -0.00973511 0)
(0.071241 -0.0348511 0)
(0.0523816 -0.107006 0)
(0.0774607 -0.180054 0)
(0.038292 0.0349004 0)
(0.0424206 0.0225721 0)
(0.0617706 0.018463 0)
(0.0908591 0.0174612 0)
(0.113278 0.0177802 0)
(0.138134 0.0163784 0)
(0.15734 0.0158038 0)
(0.177442 0.0137496 0)
(0.191775 0.0134196 0)
(0.20677 0.0114525 0)
(0.216994 0.0113765 0)
(0.228096 0.00937386 0)
(0.23518 0.0095584 0)
(0.24257 0.00774655 0)
(0.246758 0.00838727 0)
(0.249538 0.00639261 0)
(0.246629 0.00491643 0)
(0.235157 -0.00198298 0)
(0.198538 -0.0144499 0)
(0.14752 -0.0342532 0)
)
;

boundaryField
{
    movingWall
    {
        type            fixedValue;
        value           uniform (1 0 0);
    }
    fixedWalls
    {
        type            noSlip;
    }
    frontAndBack
    {
        type            empty;
    }
}


// ************************************************************************* //
