/*--------------------------------*- C++ -*----------------------------------*\
| =========                 |                                                 |
| \\      /  F ield         | OpenFOAM: The Open Source CFD Toolbox           |
|  \\    /   O peration     | Version:  5.0                                   |
|   \\  /    A nd           | Web:      www.OpenFOAM.org                      |
|    \\/     M anipulation  |                                                 |
\*---------------------------------------------------------------------------*/
FoamFile
{
    version     2.0;
    format      ascii;
    class       volScalarField;
    location    "5";
    object      yPlus;
}
// * * * * * * * * * * * * * * * * * * * * * * * * * * * * * * * * * * * * * //

dimensions      [0 0 0 0 0 0 0];

internalField   uniform 0;

boundaryField
{
    movingWall
    {
        type            calculated;
        value           nonuniform List<scalar> 
20
(
15.5108
15.4745
15.3167
15.0774
14.8904
14.6801
14.5156
14.3411
14.2156
14.0829
13.9919
13.8921
13.8282
13.7611
13.7231
13.6975
13.7239
13.8279
14.1562
14.6045
)
;
    }
    fixedWalls
    {
        type            calculated;
        value           nonuniform List<scalar> 
60
(
0.943184
1.12779
1.25547
2.54283
3.35818
4.01844
4.4722
4.72847
4.87195
4.87382
4.79263
4.6348
4.32951
3.91231
3.36364
2.197
1.56287
2.01342
2.87639
3.59897
1.91899
3.85411
5.24776
5.90751
6.45919
6.78019
7.08259
7.26791
7.46231
7.5769
7.69224
7.74496
7.78277
7.77211
7.77358
7.75287
7.75467
7.64654
7.00016
6.15314
0.943184
1.21068
0.462088
1.73122
3.30459
4.35008
4.93132
5.42184
5.70847
5.96855
6.11176
6.23785
6.29186
6.30562
6.19823
5.96532
5.53514
4.85163
3.8534
1.91899
)
;
    }
    frontAndBack
    {
        type            empty;
    }
}


// ************************************************************************* //
