/*--------------------------------*- C++ -*----------------------------------*\
| =========                 |                                                 |
| \\      /  F ield         | OpenFOAM: The Open Source CFD Toolbox           |
|  \\    /   O peration     | Version:  5.0                                   |
|   \\  /    A nd           | Web:      www.OpenFOAM.org                      |
|    \\/     M anipulation  |                                                 |
\*---------------------------------------------------------------------------*/
FoamFile
{
    version     2.0;
    format      ascii;
    class       volScalarField;
    location    "4";
    object      epsilon;
}
// * * * * * * * * * * * * * * * * * * * * * * * * * * * * * * * * * * * * * //

dimensions      [0 2 -3 0 0 0 0];

internalField   nonuniform List<scalar> 
400
(
6.3964e-06
1.64959e-05
6.25628e-05
0.000245101
0.000511619
0.000683878
0.000819607
0.000931407
0.00103877
0.00113299
0.00122973
0.00132126
0.00141924
0.00148995
0.00152374
0.00153023
0.00143033
0.0011238
0.000686073
0.000486765
3.04771e-05
7.06837e-05
0.000228177
0.000567439
0.000741121
0.000798434
0.000837339
0.000859797
0.000906238
0.000960814
0.00104404
0.00114675
0.00127616
0.00142787
0.00160206
0.00178493
0.00188091
0.00189769
0.00157163
0.00112462
0.00012501
0.000282111
0.000597563
0.000733474
0.000768871
0.000784293
0.000795506
0.00081264
0.000868676
0.000933632
0.00101804
0.00111421
0.00122532
0.00135995
0.0015236
0.00171915
0.0019051
0.0019841
0.00189983
0.0015823
0.000314454
0.000583108
0.000719136
0.000741653
0.000743578
0.000738171
0.000737745
0.000765232
0.000808822
0.000859496
0.000919749
0.000990948
0.00108583
0.00121263
0.00138879
0.00162606
0.00190792
0.00204946
0.00206245
0.00188769
0.000520137
0.000720251
0.000748711
0.000719522
0.000685723
0.000670363
0.000666032
0.000677582
0.000697463
0.000722307
0.000758349
0.000812185
0.000896377
0.00102805
0.00123376
0.00153879
0.00193873
0.00221043
0.00226954
0.00212818
0.000665723
0.000772586
0.000735607
0.00067005
0.00062266
0.000599696
0.000584919
0.000577766
0.000574559
0.000574512
0.000588394
0.000623686
0.000695464
0.000826682
0.00105444
0.00142393
0.00195287
0.00241254
0.00254119
0.00232508
0.000744276
0.000763531
0.000698875
0.000613795
0.000564235
0.0005354
0.00050964
0.000486131
0.000463604
0.000449871
0.000446331
0.000463509
0.000518719
0.000637351
0.000867647
0.00128248
0.00194517
0.00263882
0.0028628
0.0024882
0.000739263
0.000733448
0.000644257
0.000563051
0.000514133
0.000480963
0.000447828
0.000414353
0.000381862
0.000356701
0.000345575
0.000348155
0.000385596
0.000483259
0.000696794
0.00112488
0.00188164
0.00285742
0.00325924
0.00262301
0.000714067
0.000677977
0.000591932
0.000518997
0.000472586
0.000437839
0.00040182
0.00036456
0.000328663
0.000298631
0.000280852
0.000276168
0.000297958
0.000372664
0.00055812
0.000974673
0.00179543
0.00302377
0.00367957
0.00272606
0.000650779
0.000625283
0.000544371
0.00048154
0.000438979
0.000405047
0.000369693
0.00033302
0.000297869
0.00026786
0.000246971
0.000238769
0.00025114
0.000304602
0.000457235
0.000843102
0.00170073
0.00313793
0.00413431
0.00280516
0.000583983
0.000577058
0.000506183
0.000450792
0.000412153
0.000380443
0.000347884
0.000314323
0.000282199
0.000254371
0.000233687
0.000224499
0.000232493
0.000272672
0.000395376
0.000739435
0.00159074
0.00319288
0.00458994
0.00285178
0.000520008
0.000536198
0.000479295
0.000428181
0.000392642
0.000363087
0.000333566
0.000303712
0.00027529
0.000250457
0.000231261
0.000222433
0.000228738
0.000262535
0.000366384
0.000667442
0.00147887
0.0032118
0.00502599
0.00287341
0.000455659
0.000499778
0.000456905
0.000412129
0.000378488
0.000350623
0.000323898
0.000297753
0.000273079
0.000251218
0.00023375
0.000227008
0.000233393
0.000263339
0.000356946
0.000626566
0.00138373
0.00320893
0.00535214
0.00287929
0.000389307
0.000473963
0.000447819
0.00040814
0.000378804
0.000351417
0.000324827
0.000299134
0.000275229
0.000254631
0.000238594
0.000235259
0.000243411
0.000274375
0.000361503
0.000611165
0.00131197
0.00315612
0.00549972
0.00286973
0.000315787
0.000430093
0.00042781
0.000410742
0.000385835
0.000359946
0.000333047
0.000306827
0.000282634
0.000262282
0.000246711
0.000246957
0.000257934
0.000293767
0.000384384
0.000623435
0.00128495
0.00312444
0.00552574
0.00285331
0.000245907
0.000387642
0.000416904
0.000417941
0.000407076
0.000384336
0.000356586
0.00032807
0.000301702
0.000279814
0.000266147
0.000269135
0.000286614
0.000335441
0.000446371
0.000708857
0.00134325
0.00312191
0.00517891
0.00281022
0.000166945
0.000289522
0.000382159
0.000433065
0.000443728
0.000434235
0.000410627
0.000380743
0.000353927
0.000332671
0.000331019
0.00034449
0.00038578
0.000478238
0.000654421
0.00102572
0.00169415
0.00337969
0.00468414
0.00274055
0.000167534
0.00026897
0.00042379
0.000518156
0.000567325
0.000581896
0.000576767
0.00056499
0.000564828
0.000577717
0.000619958
0.000710304
0.000867027
0.00113348
0.0014791
0.00220269
0.00295773
0.00429577
0.00441913
0.00262055
0.000239759
0.000338205
0.00068306
0.000921338
0.00109361
0.00122407
0.00133578
0.00146609
0.00163284
0.0018523
0.00216245
0.00257379
0.00314751
0.00389399
0.00480851
0.00600206
0.00614267
0.00566448
0.00453179
0.0024232
0.000180624
0.000298867
0.000566725
0.000835887
0.00106865
0.00124226
0.00139151
0.00148592
0.0015886
0.00164739
0.00174461
0.00180269
0.00192121
0.00200308
0.00214963
0.00226811
0.00238325
0.00246367
0.00242567
0.00217131
)
;

boundaryField
{
    movingWall
    {
        Cmu             0.09;
        kappa           0.41;
        E               9.8;
        type            epsilonWallFunction;
        value           nonuniform List<scalar> 
20
(
0.000180624
0.000298867
0.000566725
0.000835887
0.00106865
0.00124226
0.00139151
0.00148592
0.0015886
0.00164739
0.00174461
0.00180269
0.00192121
0.00200308
0.00214963
0.00226811
0.00238325
0.00246367
0.00242567
0.00217131
)
;
    }
    fixedWalls
    {
        Cmu             0.09;
        kappa           0.41;
        E               9.8;
        type            epsilonWallFunction;
        value           nonuniform List<scalar> 
60
(
6.3964e-06
3.04771e-05
0.00012501
0.000314454
0.000520137
0.000665723
0.000744276
0.000739263
0.000714067
0.000650779
0.000583983
0.000520008
0.000455659
0.000389307
0.000315787
0.000245907
0.000166945
0.000167534
0.000239759
0.000180624
0.000486765
0.00112462
0.0015823
0.00188769
0.00212818
0.00232508
0.0024882
0.00262301
0.00272606
0.00280516
0.00285178
0.00287341
0.00287929
0.00286973
0.00285331
0.00281022
0.00274055
0.00262055
0.0024232
0.00217131
6.3964e-06
1.64959e-05
6.25628e-05
0.000245101
0.000511619
0.000683878
0.000819607
0.000931407
0.00103877
0.00113299
0.00122973
0.00132126
0.00141924
0.00148995
0.00152374
0.00153023
0.00143033
0.0011238
0.000686073
0.000486765
)
;
    }
    frontAndBack
    {
        type            empty;
    }
}


// ************************************************************************* //
