/*--------------------------------*- C++ -*----------------------------------*\
| =========                 |                                                 |
| \\      /  F ield         | OpenFOAM: The Open Source CFD Toolbox           |
|  \\    /   O peration     | Version:  5.0                                   |
|   \\  /    A nd           | Web:      www.OpenFOAM.org                      |
|    \\/     M anipulation  |                                                 |
\*---------------------------------------------------------------------------*/
FoamFile
{
    version     2.0;
    format      ascii;
    class       volScalarField;
    location    "4";
    object      k;
}
// * * * * * * * * * * * * * * * * * * * * * * * * * * * * * * * * * * * * * //

dimensions      [0 2 -2 0 0 0 0];

internalField   nonuniform List<scalar> 
400
(
1.99692e-06
5.16336e-06
1.96767e-05
7.68721e-05
0.000159954
0.000213604
0.000255978
0.00029087
0.000324408
0.000353835
0.00038407
0.000412663
0.000443297
0.000465414
0.000475992
0.00047803
0.000446861
0.000351106
0.000214321
0.000152059
9.52991e-06
3.9916e-05
9.77346e-05
0.000214123
0.000341688
0.000403496
0.000480803
0.000530411
0.000595797
0.000648921
0.000709301
0.000764807
0.000819385
0.000869459
0.000913699
0.000935194
0.000940598
0.000842113
0.000569049
0.000351315
3.91241e-05
0.000153551
0.000294568
0.000434237
0.000510848
0.000577013
0.000636726
0.000685175
0.000739539
0.000789088
0.000838575
0.000883972
0.000927282
0.000971665
0.00101508
0.00103922
0.00104661
0.000992245
0.000735176
0.000494249
9.8441e-05
0.000335971
0.000450824
0.000547531
0.000599355
0.000659741
0.000703394
0.000744955
0.000787389
0.000827309
0.000866623
0.000903979
0.000942498
0.000988147
0.00104285
0.00109604
0.00111584
0.00110496
0.000882347
0.000589609
0.000162855
0.000453424
0.000542401
0.000601143
0.000639571
0.000682788
0.000711903
0.000744038
0.000776568
0.0008038
0.000829474
0.000857774
0.000896714
0.000951218
0.00102816
0.00112462
0.00119256
0.00120558
0.0010193
0.000664695
0.000208432
0.000524896
0.000589602
0.000620031
0.000647336
0.00068004
0.000702921
0.000723322
0.000734783
0.000742694
0.000754191
0.000775411
0.000812693
0.000876144
0.000978669
0.00112631
0.00126828
0.00131366
0.00116319
0.000726165
0.000232973
0.000545508
0.000595723
0.000618477
0.000643602
0.000668295
0.000677788
0.000679882
0.000676139
0.000672731
0.000673024
0.000685273
0.000717326
0.000782192
0.000898179
0.00108018
0.0013084
0.00142004
0.00130661
0.000777081
0.000231405
0.000540097
0.00058969
0.000611015
0.000632348
0.000644623
0.000645931
0.000637967
0.000624079
0.000610124
0.000603552
0.000606558
0.000631583
0.000693076
0.000815181
0.00102506
0.00131932
0.00151911
0.00146142
0.000819151
0.000223532
0.000524
0.000574333
0.000594968
0.000612685
0.000620227
0.000616981
0.000603317
0.000583617
0.000563251
0.000549716
0.000546352
0.000563627
0.000617847
0.000736886
0.000959543
0.00130537
0.00160319
0.00160646
0.000851305
0.000203769
0.000500746
0.00055098
0.000573692
0.00059061
0.000597
0.000591912
0.000576376
0.000554594
0.000531444
0.000512697
0.000504484
0.000515205
0.000561395
0.000672581
0.000894094
0.00126472
0.00167234
0.00174965
0.00087598
0.000182867
0.000468067
0.000525333
0.000550399
0.000567515
0.00057426
0.000569699
0.000555338
0.00053402
0.000510627
0.000490132
0.000479351
0.000486559
0.00052572
0.000627199
0.000842141
0.00122164
0.00170645
0.00188237
0.000890506
0.000162869
0.000430765
0.000499323
0.000527075
0.000544618
0.000551936
0.000548715
0.000537311
0.00051811
0.000496323
0.000476542
0.000466797
0.00047393
0.000509777
0.000601888
0.000802345
0.00117843
0.0017199
0.00200307
0.000897248
0.000142735
0.0003902
0.000471649
0.000504972
0.000523563
0.000531298
0.000528958
0.000520236
0.000503768
0.00048452
0.000466969
0.000460975
0.000470008
0.000505608
0.0005918
0.000773983
0.00113302
0.00172161
0.00208387
0.000899075
0.000122014
0.0003517
0.000446161
0.000485935
0.000506728
0.000514024
0.000511682
0.000504091
0.000489835
0.00047327
0.000458827
0.000458296
0.000469912
0.000507358
0.000590353
0.000759067
0.00108401
0.00169943
0.00211723
0.000896078
9.89977e-05
0.000302985
0.000415388
0.000469159
0.000495477
0.000506628
0.0005045
0.000496942
0.000482592
0.000466679
0.000455413
0.000457735
0.00047324
0.000514301
0.000597178
0.000755354
0.00105232
0.00166175
0.00211608
0.000890953
7.71569e-05
0.000263685
0.000390802
0.00045599
0.000497312
0.000512733
0.00051063
0.000502624
0.00048734
0.000470817
0.000461762
0.000466068
0.000485038
0.000531523
0.000617541
0.000774998
0.00104425
0.00163492
0.00198491
0.000877404
5.23044e-05
0.000203474
0.000350772
0.000453653
0.000510212
0.000535715
0.000535203
0.000528416
0.000513858
0.000498469
0.000495966
0.000505068
0.000533642
0.000595906
0.00069986
0.000884665
0.00112506
0.00163214
0.00181783
0.000855595
5.24194e-05
0.000212559
0.00038143
0.000499361
0.000573871
0.000614134
0.000623926
0.000623286
0.000621341
0.000624752
0.000641069
0.000678536
0.000751732
0.000863494
0.00101613
0.00127094
0.00149865
0.00178688
0.00164882
0.000817951
7.49333e-05
0.000277793
0.000514445
0.000669933
0.000779626
0.000860643
0.000921574
0.000977019
0.0010393
0.00111753
0.00122286
0.00135162
0.00153069
0.00173391
0.00199083
0.00226344
0.00224917
0.00205164
0.00157524
0.000756203
5.64185e-05
9.3351e-05
0.000177027
0.000261114
0.000333762
0.000387904
0.00043442
0.0004638
0.000495731
0.000513989
0.000544215
0.000562281
0.000599135
0.0006247
0.000670313
0.000707385
0.000743324
0.000768539
0.000756716
0.000677402
)
;

boundaryField
{
    movingWall
    {
        type            kqRWallFunction;
        value           nonuniform List<scalar> 
20
(
5.64185e-05
9.3351e-05
0.000177027
0.000261114
0.000333762
0.000387904
0.00043442
0.0004638
0.000495731
0.000513989
0.000544215
0.000562281
0.000599135
0.0006247
0.000670313
0.000707385
0.000743324
0.000768539
0.000756716
0.000677402
)
;
    }
    fixedWalls
    {
        type            kqRWallFunction;
        value           nonuniform List<scalar> 
60
(
1.99692e-06
9.52991e-06
3.91241e-05
9.8441e-05
0.000162855
0.000208432
0.000232973
0.000231405
0.000223532
0.000203769
0.000182867
0.000162869
0.000142735
0.000122014
9.89977e-05
7.71569e-05
5.23044e-05
5.24194e-05
7.49333e-05
5.64185e-05
0.000152059
0.000351315
0.000494249
0.000589609
0.000664695
0.000726165
0.000777081
0.000819151
0.000851305
0.00087598
0.000890506
0.000897248
0.000899075
0.000896078
0.000890953
0.000877404
0.000855595
0.000817951
0.000756203
0.000677402
1.99692e-06
5.16336e-06
1.96767e-05
7.68721e-05
0.000159954
0.000213604
0.000255978
0.00029087
0.000324408
0.000353835
0.00038407
0.000412663
0.000443297
0.000465414
0.000475992
0.00047803
0.000446861
0.000351106
0.000214321
0.000152059
)
;
    }
    frontAndBack
    {
        type            empty;
    }
}


// ************************************************************************* //
