/*--------------------------------*- C++ -*----------------------------------*\
| =========                 |                                                 |
| \\      /  F ield         | OpenFOAM: The Open Source CFD Toolbox           |
|  \\    /   O peration     | Version:  5.0                                   |
|   \\  /    A nd           | Web:      www.OpenFOAM.org                      |
|    \\/     M anipulation  |                                                 |
\*---------------------------------------------------------------------------*/
FoamFile
{
    version     2.0;
    format      ascii;
    class       volScalarField;
    location    "4";
    object      nut;
}
// * * * * * * * * * * * * * * * * * * * * * * * * * * * * * * * * * * * * * //

dimensions      [0 2 -1 0 0 0 0];

internalField   nonuniform List<scalar> 
400
(
5.61085e-08
1.45456e-07
5.56967e-07
2.16988e-06
4.50078e-06
6.00459e-06
7.19519e-06
8.17527e-06
9.11817e-06
9.94528e-06
1.07958e-05
1.15996e-05
1.24617e-05
1.30843e-05
1.33823e-05
1.34399e-05
1.25647e-05
9.8726e-06
6.02564e-06
4.27512e-06
2.68192e-07
2.0287e-06
3.76762e-06
7.27192e-06
1.41779e-05
1.83519e-05
2.48471e-05
2.9449e-05
3.5253e-05
3.94445e-05
4.33699e-05
4.59068e-05
4.73494e-05
4.76488e-05
4.68996e-05
4.40986e-05
4.23333e-05
3.36324e-05
1.85435e-05
9.87707e-06
1.10201e-06
7.5219e-06
1.30687e-05
2.31372e-05
3.05472e-05
3.82064e-05
4.58674e-05
5.19933e-05
5.6664e-05
6.0023e-05
6.21673e-05
6.31178e-05
6.31562e-05
6.24818e-05
6.08655e-05
5.65385e-05
5.17486e-05
4.46598e-05
2.56041e-05
1.38946e-05
2.77356e-06
1.74219e-05
2.54358e-05
3.63798e-05
4.34794e-05
5.3068e-05
6.03579e-05
6.52694e-05
6.89872e-05
7.16694e-05
7.34909e-05
7.42178e-05
7.36278e-05
7.24697e-05
7.04781e-05
6.64902e-05
5.8734e-05
5.3616e-05
3.39734e-05
1.65745e-05
4.58908e-06
2.56902e-05
3.53647e-05
4.52017e-05
5.36872e-05
6.259e-05
6.84839e-05
7.35311e-05
7.78181e-05
8.05038e-05
8.16542e-05
8.1533e-05
8.07346e-05
7.92119e-05
7.71141e-05
7.39729e-05
6.60218e-05
5.91776e-05
4.12012e-05
1.86844e-05
5.87324e-06
3.20953e-05
4.25319e-05
5.16372e-05
6.05691e-05
6.94034e-05
7.60255e-05
8.14993e-05
8.45718e-05
8.64098e-05
8.70034e-05
8.67643e-05
8.54714e-05
8.3571e-05
8.17511e-05
8.01806e-05
7.41311e-05
6.43773e-05
4.79187e-05
2.04115e-05
6.56326e-06
3.50767e-05
4.57017e-05
5.60875e-05
6.6072e-05
7.50758e-05
8.11273e-05
8.55768e-05
8.87498e-05
9.05394e-05
9.13369e-05
9.11825e-05
8.92777e-05
8.63953e-05
8.36806e-05
8.18806e-05
7.9207e-05
6.87752e-05
5.36711e-05
2.18418e-05
6.51911e-06
3.57945e-05
4.8577e-05
5.96758e-05
6.99971e-05
7.77575e-05
8.38502e-05
8.84031e-05
9.17942e-05
9.39237e-05
9.48701e-05
9.51074e-05
9.31047e-05
8.9459e-05
8.58313e-05
8.40698e-05
8.32543e-05
7.26853e-05
5.89758e-05
2.30235e-05
6.29769e-06
3.64494e-05
5.01531e-05
6.13853e-05
7.14886e-05
7.90732e-05
8.52618e-05
8.98597e-05
9.32712e-05
9.56119e-05
9.68373e-05
9.72781e-05
9.59556e-05
9.21907e-05
8.75619e-05
8.50183e-05
8.54164e-05
7.65e-05
6.31226e-05
2.39264e-05
5.74228e-06
3.60911e-05
5.01903e-05
6.1513e-05
7.15154e-05
7.91927e-05
8.52936e-05
8.97807e-05
9.29325e-05
9.48962e-05
9.57896e-05
9.59311e-05
9.51231e-05
9.31207e-05
8.90413e-05
8.53353e-05
8.46444e-05
8.02132e-05
6.66411e-05
2.46191e-05
5.15361e-06
3.41696e-05
4.90686e-05
6.04814e-05
7.03296e-05
7.80135e-05
8.39652e-05
8.83043e-05
9.095e-05
9.22531e-05
9.25196e-05
9.21159e-05
9.1644e-05
9.12243e-05
8.95453e-05
8.63201e-05
8.44369e-05
8.20815e-05
6.94773e-05
2.50266e-05
4.59102e-06
3.11457e-05
4.68168e-05
5.83928e-05
6.79875e-05
7.5511e-05
8.12371e-05
8.55524e-05
8.77597e-05
8.85196e-05
8.83777e-05
8.81658e-05
8.83755e-05
8.90871e-05
8.89893e-05
8.68063e-05
8.45121e-05
8.28898e-05
7.18476e-05
2.52156e-05
4.02406e-06
2.74183e-05
4.38182e-05
5.56857e-05
6.51822e-05
7.24565e-05
7.77458e-05
8.18063e-05
8.36404e-05
8.41039e-05
8.39589e-05
8.42475e-05
8.51854e-05
8.73685e-05
8.83061e-05
8.60475e-05
8.34968e-05
8.31287e-05
7.30228e-05
2.52668e-05
3.44168e-06
2.34878e-05
4.00058e-05
5.20702e-05
6.10067e-05
6.76686e-05
7.25422e-05
7.6453e-05
7.84598e-05
7.91679e-05
7.9411e-05
8.03505e-05
8.16461e-05
8.4436e-05
8.6767e-05
8.48486e-05
8.0609e-05
8.23557e-05
7.33562e-05
2.51822e-05
2.79318e-06
1.92098e-05
3.62995e-05
4.82295e-05
5.72649e-05
6.41775e-05
6.87796e-05
7.24371e-05
7.41616e-05
7.47327e-05
7.56597e-05
7.63569e-05
7.81443e-05
8.10354e-05
8.34995e-05
8.23669e-05
7.75633e-05
7.95434e-05
7.29314e-05
2.50382e-05
2.17882e-06
1.6143e-05
3.297e-05
4.47752e-05
5.46795e-05
6.15621e-05
6.58099e-05
6.93047e-05
7.08482e-05
7.12981e-05
7.21036e-05
7.26392e-05
7.38748e-05
7.58002e-05
7.68916e-05
7.62579e-05
7.30625e-05
7.7058e-05
6.84679e-05
2.46548e-05
1.47484e-06
1.28701e-05
2.89766e-05
4.27697e-05
5.27992e-05
5.9482e-05
6.27817e-05
6.60028e-05
6.71453e-05
6.7221e-05
6.68796e-05
6.66447e-05
6.64359e-05
6.68273e-05
6.7361e-05
6.86708e-05
6.72416e-05
7.09384e-05
6.34923e-05
2.40404e-05
1.47613e-06
1.51181e-05
3.08974e-05
4.33123e-05
5.22443e-05
5.83342e-05
6.07448e-05
6.18837e-05
6.15157e-05
6.08055e-05
5.96609e-05
5.8337e-05
5.86591e-05
5.92034e-05
6.2827e-05
6.59992e-05
6.83413e-05
6.68949e-05
5.53669e-05
2.29776e-05
2.10774e-06
2.05354e-05
3.48708e-05
4.38416e-05
5.00211e-05
5.44604e-05
5.72228e-05
5.85988e-05
5.95368e-05
6.06801e-05
6.22371e-05
6.38823e-05
6.69963e-05
6.94865e-05
7.41822e-05
7.68212e-05
7.41188e-05
6.68783e-05
4.92794e-05
2.12388e-05
1.58602e-06
2.62423e-06
4.97678e-06
7.34099e-06
9.38165e-06
1.09013e-05
1.22061e-05
1.30289e-05
1.39226e-05
1.4433e-05
1.52786e-05
1.57844e-05
1.68158e-05
1.75343e-05
1.88119e-05
1.9856e-05
2.08656e-05
2.1577e-05
2.1246e-05
1.90201e-05
)
;

boundaryField
{
    movingWall
    {
        type            nutkWallFunction;
        Cmu             0.09;
        kappa           0.41;
        E               9.8;
        value           uniform 0;
    }
    fixedWalls
    {
        type            nutkWallFunction;
        Cmu             0.09;
        kappa           0.41;
        E               9.8;
        value           uniform 0;
    }
    frontAndBack
    {
        type            empty;
    }
}


// ************************************************************************* //
