/*--------------------------------*- C++ -*----------------------------------*\
| =========                 |                                                 |
| \\      /  F ield         | OpenFOAM: The Open Source CFD Toolbox           |
|  \\    /   O peration     | Version:  5.0                                   |
|   \\  /    A nd           | Web:      www.OpenFOAM.org                      |
|    \\/     M anipulation  |                                                 |
\*---------------------------------------------------------------------------*/
FoamFile
{
    version     2.0;
    format      ascii;
    class       volScalarField;
    location    "4";
    object      p;
}
// * * * * * * * * * * * * * * * * * * * * * * * * * * * * * * * * * * * * * //

dimensions      [0 2 -2 0 0 0 0];

internalField   nonuniform List<scalar> 
400
(
2.65489e-08
-4.32928e-05
-0.000100555
-0.000133171
-0.000299185
-0.000858804
-0.00172996
-0.00266633
-0.00347811
-0.00403313
-0.00425884
-0.00408397
-0.00348881
-0.0024696
-0.00102603
0.000755281
0.00266485
0.00430866
0.0052831
0.00543975
2.61638e-05
-9.31795e-06
-5.3775e-05
-0.000244838
-0.000658618
-0.00136
-0.00225805
-0.0031637
-0.00393797
-0.00447875
-0.00471964
-0.00460448
-0.00411556
-0.00320766
-0.00188751
-0.000198925
0.0016827
0.00342971
0.00462937
0.00507553
0.000128945
1.9566e-05
-0.000202796
-0.000623245
-0.00129777
-0.00216851
-0.00310964
-0.00399512
-0.00474211
-0.00526761
-0.00549585
-0.00539629
-0.00497023
-0.00419844
-0.00307167
-0.00160835
0.000105535
0.00185938
0.00330214
0.00400304
0.000112737
-0.000107575
-0.00054949
-0.00124966
-0.00215842
-0.0031592
-0.00414103
-0.00501187
-0.00570532
-0.0061617
-0.00635816
-0.00628334
-0.00592062
-0.00527414
-0.00433823
-0.00311383
-0.00163449
-1.2865e-05
0.00148872
0.00226371
-0.000172011
-0.000501301
-0.00113604
-0.00205091
-0.00310263
-0.0041636
-0.00514279
-0.00597021
-0.00659951
-0.00699949
-0.00716349
-0.00709232
-0.00678821
-0.00625723
-0.0054983
-0.00450616
-0.00328585
-0.0018809
-0.000461376
0.000273483
-0.000751237
-0.00116144
-0.00191304
-0.00292164
-0.00402129
-0.00508326
-0.00602786
-0.00680032
-0.00736987
-0.00772124
-0.00785556
-0.00778245
-0.00751734
-0.00707495
-0.0064604
-0.00566733
-0.00468669
-0.0035317
-0.00234484
-0.00164227
-0.0015239
-0.00197102
-0.00275467
-0.00376118
-0.00484333
-0.00586834
-0.00676246
-0.00747939
-0.00799625
-0.00830548
-0.00841318
-0.00833495
-0.00809355
-0.00771204
-0.00720383
-0.00656604
-0.00578513
-0.00486002
-0.00393182
-0.0032999
-0.00232186
-0.00276407
-0.00352431
-0.0044828
-0.00551716
-0.00648953
-0.0073306
-0.00799791
-0.00847147
-0.00874683
-0.00883235
-0.00874683
-0.00851732
-0.00817336
-0.00773669
-0.00721079
-0.00658388
-0.00585079
-0.00515365
-0.0045897
-0.00299909
-0.00341745
-0.00412681
-0.00502664
-0.00600544
-0.00692496
-0.00771991
-0.00834851
-0.00879052
-0.00904155
-0.00910994
-0.00901565
-0.00878854
-0.00846345
-0.00806987
-0.00761863
-0.00710335
-0.00651162
-0.00598975
-0.00549102
-0.00348852
-0.00385144
-0.00450722
-0.00535684
-0.00628327
-0.0071584
-0.00791966
-0.00852312
-0.00894631
-0.00918289
-0.00923968
-0.00913634
-0.00890471
-0.00858397
-0.00821017
-0.00780208
-0.00737012
-0.00686205
-0.00647533
-0.00600232
-0.00375284
-0.00406198
-0.00465742
-0.00545914
-0.00633772
-0.0071802
-0.00792126
-0.00851362
-0.00893078
-0.00916288
-0.00921434
-0.00910375
-0.00886427
-0.00853872
-0.00816755
-0.00777389
-0.00741447
-0.0069198
-0.006652
-0.00614096
-0.00378268
-0.00405714
-0.00459346
-0.00533366
-0.00617206
-0.00699095
-0.00772296
-0.00831656
-0.00873962
-0.00897735
-0.00903088
-0.00891706
-0.00866993
-0.00833535
-0.00795874
-0.00757439
-0.00723129
-0.00670272
-0.00658801
-0.00591565
-0.00363793
-0.00387645
-0.0043504
-0.00501506
-0.00580421
-0.00660141
-0.00733209
-0.00793738
-0.00837758
-0.00863156
-0.00869612
-0.00858583
-0.00833457
-0.0079907
-0.00760341
-0.00720969
-0.00685196
-0.00626941
-0.00632928
-0.0053418
-0.00340056
-0.00357849
-0.00396687
-0.00454254
-0.00526539
-0.0060359
-0.00676928
-0.00739522
-0.00786383
-0.00814591
-0.00823289
-0.00813667
-0.00788852
-0.00753819
-0.00713676
-0.00671903
-0.00632964
-0.00569226
-0.00586516
-0.00444653
-0.00316399
-0.00325127
-0.00350506
-0.00396169
-0.0046022
-0.00533914
-0.00607687
-0.00673087
-0.00723882
-0.00756187
-0.00768503
-0.00761726
-0.0073832
-0.00703156
-0.00661287
-0.00615572
-0.00571091
-0.00499538
-0.00516809
-0.00325506
-0.00297488
-0.00292548
-0.00300241
-0.00331732
-0.00386792
-0.00457
-0.0053157
-0.00600557
-0.00656416
-0.00694202
-0.00711596
-0.00708756
-0.0068864
-0.00654085
-0.00609877
-0.0055758
-0.00502643
-0.00415452
-0.00415192
-0.0016196
-0.00286472
-0.00263102
-0.00250587
-0.00267542
-0.00313941
-0.00381111
-0.00456905
-0.00530025
-0.00591764
-0.00636194
-0.00660168
-0.00663064
-0.00646516
-0.0061248
-0.00564122
-0.00500323
-0.00425458
-0.00306072
-0.00255309
0.00133137
-0.00279885
-0.00230374
-0.0020213
-0.00207018
-0.00247243
-0.00313589
-0.00392206
-0.00470412
-0.00538463
-0.00589681
-0.00620243
-0.00628494
-0.00614647
-0.00578892
-0.00523185
-0.00442418
-0.00334864
-0.00151029
0.00031974
0.00753353
-0.00290488
-0.00207426
-0.00165398
-0.00161163
-0.00197695
-0.00264232
-0.00345954
-0.00429309
-0.00503827
-0.00561665
-0.00598813
-0.00612603
-0.00603204
-0.00568638
-0.00506311
-0.00401184
-0.00242605
0.000678281
0.00550866
0.0181265
-0.00349196
-0.00084699
-0.000326911
-0.00047198
-0.000926229
-0.00164425
-0.00253838
-0.0034732
-0.0043167
-0.00498116
-0.00541104
-0.00558303
-0.00547345
-0.00506684
-0.00430225
-0.0030616
-0.000725001
0.00444933
0.0143082
0.0310827
)
;

boundaryField
{
    movingWall
    {
        type            zeroGradient;
    }
    fixedWalls
    {
        type            zeroGradient;
    }
    frontAndBack
    {
        type            empty;
    }
}


// ************************************************************************* //
