/*--------------------------------*- C++ -*----------------------------------*\
| =========                 |                                                 |
| \\      /  F ield         | OpenFOAM: The Open Source CFD Toolbox           |
|  \\    /   O peration     | Version:  5.0                                   |
|   \\  /    A nd           | Web:      www.OpenFOAM.org                      |
|    \\/     M anipulation  |                                                 |
\*---------------------------------------------------------------------------*/
FoamFile
{
    version     2.0;
    format      ascii;
    class       surfaceScalarField;
    location    "4";
    object      phi;
}
// * * * * * * * * * * * * * * * * * * * * * * * * * * * * * * * * * * * * * //

dimensions      [0 3 -1 0 0 0 0];

internalField   nonuniform List<scalar> 
760
(
1.10071e-07
-1.10074e-07
4.25279e-08
6.75429e-08
-2.8086e-07
3.23388e-07
-1.02556e-06
7.44704e-07
-2.11657e-06
1.091e-06
-3.19684e-06
1.08027e-06
-4.12164e-06
9.24799e-07
-4.88464e-06
7.63005e-07
-5.46053e-06
5.75887e-07
-5.85925e-06
3.98724e-07
-6.08756e-06
2.28306e-07
-6.15413e-06
6.65756e-08
-6.0368e-06
-1.17332e-07
-5.74184e-06
-2.9496e-07
-5.21905e-06
-5.22789e-07
-4.44388e-06
-7.7517e-07
-3.3836e-06
-1.06028e-06
-2.08515e-06
-1.29845e-06
-7.5716e-07
-1.32799e-06
-7.5716e-07
-1.15922e-07
5.84828e-09
-6.09384e-07
5.61005e-07
-1.54862e-06
1.26262e-06
-2.68289e-06
1.87897e-06
-3.6025e-06
2.01061e-06
-4.37567e-06
1.85344e-06
-5.04245e-06
1.59158e-06
-5.56652e-06
1.28707e-06
-5.96691e-06
9.76274e-07
-6.24357e-06
6.75386e-07
-6.38834e-06
3.73073e-07
-6.38338e-06
6.16128e-08
-6.25206e-06
-2.48645e-07
-5.96208e-06
-5.84943e-07
-5.50728e-06
-9.7759e-07
-4.84478e-06
-1.43767e-06
-3.94154e-06
-1.96352e-06
-2.753e-06
-2.48699e-06
-1.32917e-06
-2.75183e-06
-2.08632e-06
-5.15105e-07
5.20954e-07
-1.40036e-06
1.44626e-06
-2.41239e-06
2.27466e-06
-3.24725e-06
2.71383e-06
-3.92166e-06
2.68503e-06
-4.48436e-06
2.41614e-06
-4.94261e-06
2.04983e-06
-5.2928e-06
1.63727e-06
-5.52943e-06
1.2129e-06
-5.66292e-06
8.08881e-07
-5.69832e-06
4.08466e-07
-5.6396e-06
2.89444e-09
-5.49813e-06
-3.90109e-07
-5.2525e-06
-8.30582e-07
-4.88729e-06
-1.34279e-06
-4.37514e-06
-1.94982e-06
-3.67786e-06
-2.66081e-06
-2.73782e-06
-3.42703e-06
-1.49567e-06
-3.99398e-06
-3.58199e-06
-7.77561e-07
1.29851e-06
-1.70634e-06
2.37504e-06
-2.54049e-06
3.10881e-06
-3.17554e-06
3.34888e-06
-3.6698e-06
3.17929e-06
-4.06103e-06
2.80737e-06
-4.35697e-06
2.34577e-06
-4.56442e-06
1.84472e-06
-4.6938e-06
1.34228e-06
-4.74528e-06
8.60358e-07
-4.72847e-06
3.91653e-07
-4.65627e-06
-6.93063e-08
-4.51235e-06
-5.34026e-07
-4.30373e-06
-1.03921e-06
-4.02233e-06
-1.62419e-06
-3.64315e-06
-2.329e-06
-3.1245e-06
-3.17946e-06
-2.40204e-06
-4.14949e-06
-1.3757e-06
-5.02032e-06
-4.95769e-06
-8.18624e-07
2.11714e-06
-1.64698e-06
3.20339e-06
-2.3057e-06
3.76753e-06
-2.79478e-06
3.83797e-06
-3.1627e-06
3.5472e-06
-3.43811e-06
3.08278e-06
-3.63305e-06
2.54071e-06
-3.75775e-06
1.96941e-06
-3.8201e-06
1.40464e-06
-3.82238e-06
8.62633e-07
-3.77206e-06
3.41339e-07
-3.67642e-06
-1.64955e-07
-3.53734e-06
-6.73105e-07
-3.36138e-06
-1.21516e-06
-3.14829e-06
-1.83728e-06
-2.88057e-06
-2.59672e-06
-2.51501e-06
-3.54503e-06
-1.97951e-06
-4.68498e-06
-1.17122e-06
-5.82861e-06
-6.12891e-06
-7.19045e-07
2.83618e-06
-1.39479e-06
3.87913e-06
-1.90318e-06
4.27592e-06
-2.28132e-06
4.21611e-06
-2.55971e-06
3.82559e-06
-2.75966e-06
3.28273e-06
-2.89345e-06
2.67449e-06
-2.97101e-06
2.04698e-06
-2.99778e-06
1.43141e-06
-2.97611e-06
8.40958e-07
-2.91097e-06
2.76199e-07
-2.80849e-06
-2.6743e-07
-2.6769e-06
-8.04701e-07
-2.52697e-06
-1.36509e-06
-2.36561e-06
-1.99865e-06
-2.1857e-06
-2.77663e-06
-1.95552e-06
-3.7752e-06
-1.59818e-06
-5.04232e-06
-9.61417e-07
-6.46537e-06
-7.09033e-06
-5.66607e-07
3.40279e-06
-1.07109e-06
4.38362e-06
-1.44789e-06
4.65271e-06
-1.72941e-06
4.49764e-06
-1.93722e-06
4.0334e-06
-2.08501e-06
3.43052e-06
-2.18223e-06
2.77171e-06
-2.23596e-06
2.1007e-06
-2.2489e-06
1.44436e-06
-2.22223e-06
8.14288e-07
-2.15896e-06
2.12926e-07
-2.06434e-06
-3.62043e-07
-1.94784e-06
-9.21209e-07
-1.82323e-06
-1.48969e-06
-1.70341e-06
-2.11847e-06
-1.58872e-06
-2.89132e-06
-1.45485e-06
-3.90907e-06
-1.23254e-06
-5.26463e-06
-8.04941e-07
-6.89298e-06
-7.89527e-06
-3.78691e-07
3.78148e-06
-7.24949e-07
4.72988e-06
-9.8275e-07
4.91051e-06
-1.17823e-06
4.69312e-06
-1.3265e-06
4.18167e-06
-1.43458e-06
3.5386e-06
-1.50791e-06
2.84504e-06
-1.5501e-06
2.14288e-06
-1.5615e-06
1.45577e-06
-1.54173e-06
7.9451e-07
-1.49185e-06
1.63049e-07
-1.41598e-06
-4.37914e-07
-1.32323e-06
-1.01395e-06
-1.22877e-06
-1.58415e-06
-1.15013e-06
-2.19711e-06
-1.09476e-06
-2.94668e-06
-1.04299e-06
-3.96084e-06
-9.27849e-07
-5.37977e-06
-6.44259e-07
-7.17657e-06
-8.53953e-06
-2.02342e-07
3.98382e-06
-3.89162e-07
4.9167e-06
-5.32942e-07
5.05429e-06
-6.45429e-07
4.8056e-06
-7.37495e-07
4.27374e-06
-8.09496e-07
3.61061e-06
-8.62734e-07
2.89828e-06
-8.97438e-07
2.17759e-06
-9.12072e-07
1.4704e-06
-9.0483e-07
7.87268e-07
-8.75255e-07
1.33475e-07
-8.26098e-07
-4.87071e-07
-7.65634e-07
-1.07442e-06
-7.08773e-07
-1.64101e-06
-6.74746e-07
-2.23114e-06
-6.76616e-07
-2.94481e-06
-6.99632e-07
-3.93782e-06
-6.78466e-07
-5.40093e-06
-5.3141e-07
-7.32362e-06
-9.07094e-06
-9.00084e-09
3.99283e-06
-6.66752e-08
4.97437e-06
-1.04794e-07
5.09241e-06
-1.38527e-07
4.83934e-06
-1.71401e-07
4.30661e-06
-2.04615e-07
3.64382e-06
-2.35143e-07
2.92881e-06
-2.60581e-07
2.20302e-06
-2.78003e-07
1.48782e-06
-2.84571e-07
7.93837e-07
-2.78989e-07
1.27893e-07
-2.62871e-07
-5.03189e-07
-2.43385e-07
-1.0939e-06
-2.34202e-07
-1.6502e-06
-2.53243e-07
-2.2121e-06
-3.13661e-07
-2.88439e-06
-4.12573e-07
-3.83891e-06
-4.76968e-07
-5.33654e-06
-4.29705e-07
-7.37089e-06
-9.50065e-06
1.56365e-07
3.83646e-06
2.40621e-07
4.89012e-06
3.11067e-07
5.02196e-06
3.57923e-07
4.79248e-06
3.81089e-07
4.28344e-06
3.88791e-07
3.63612e-06
3.84898e-07
2.9327e-06
3.7295e-07
2.21497e-06
3.56057e-07
1.50471e-06
3.36852e-07
8.13042e-07
3.16542e-07
1.48202e-07
2.9418e-07
-4.80827e-07
2.64333e-07
-1.06405e-06
2.16257e-07
-1.60212e-06
1.34247e-07
-2.13009e-06
7.70957e-10
-2.75092e-06
-1.61458e-07
-3.67668e-06
-3.075e-07
-5.1905e-06
-3.57568e-07
-7.32082e-06
-9.85821e-06
3.04732e-07
3.53173e-06
5.19851e-07
4.675e-06
6.90162e-07
4.85165e-06
8.18662e-07
4.66398e-06
9.09259e-07
4.19285e-06
9.6726e-07
3.57812e-06
9.98242e-07
2.90172e-06
1.00677e-06
2.20645e-06
9.95822e-07
1.51566e-06
9.6715e-07
8.41714e-07
9.20889e-07
1.94463e-07
8.56405e-07
-4.16343e-07
7.70488e-07
-9.78138e-07
6.57019e-07
-1.48865e-06
5.06702e-07
-1.97977e-06
3.11277e-07
-2.55549e-06
7.41434e-08
-3.43955e-06
-1.61262e-07
-4.95509e-06
-2.92611e-07
-7.18947e-06
-1.01508e-05
4.36194e-07
3.09553e-06
7.624e-07
4.34879e-06
1.0215e-06
4.59256e-06
1.23921e-06
4.44626e-06
1.40501e-06
4.02705e-06
1.5225e-06
3.46063e-06
1.59776e-06
2.82645e-06
1.63498e-06
2.16923e-06
1.6364e-06
1.51424e-06
1.60254e-06
8.75582e-07
1.53218e-06
2.64823e-07
1.42421e-06
-3.08374e-07
1.27841e-06
-8.32344e-07
1.09449e-06
-1.30473e-06
8.70758e-07
-1.75605e-06
6.00915e-07
-2.28565e-06
2.81722e-07
-3.12036e-06
-4.12324e-08
-4.63214e-06
-2.28118e-07
-7.00258e-06
-1.03789e-05
5.19789e-07
2.57575e-06
9.33958e-07
3.93462e-06
1.28499e-06
4.24152e-06
1.59468e-06
4.13658e-06
1.84545e-06
3.77628e-06
2.03509e-06
3.27099e-06
2.16608e-06
2.69546e-06
2.24128e-06
2.09402e-06
2.26199e-06
1.49353e-06
2.2278e-06
9.09768e-07
2.13697e-06
3.55655e-07
1.98721e-06
-1.58614e-07
1.78268e-06
-6.27815e-07
1.52869e-06
-1.05074e-06
1.2319e-06
-1.45925e-06
8.9094e-07
-1.94469e-06
5.0201e-07
-2.73143e-06
1.18697e-07
-4.24882e-06
-1.17584e-07
-6.7663e-06
-1.04965e-05
5.47301e-07
2.02844e-06
1.03128e-06
3.45065e-06
1.46635e-06
3.80645e-06
1.86311e-06
3.73981e-06
2.20313e-06
3.43626e-06
2.47401e-06
3.00012e-06
2.67114e-06
2.49833e-06
2.79414e-06
1.97102e-06
2.84246e-06
1.44521e-06
2.81498e-06
9.37254e-07
2.71101e-06
4.59617e-07
2.52771e-06
2.46885e-08
2.27416e-06
-3.7426e-07
1.96028e-06
-7.36859e-07
1.59839e-06
-1.09736e-06
1.19464e-06
-1.54094e-06
7.48353e-07
-2.28514e-06
3.18522e-07
-3.81899e-06
4.46664e-08
-6.49245e-06
-1.04519e-05
4.49692e-07
1.57875e-06
9.70372e-07
2.92997e-06
1.49979e-06
3.27703e-06
1.99853e-06
3.24107e-06
2.43847e-06
2.99632e-06
2.80042e-06
2.63817e-06
3.07377e-06
2.22498e-06
3.254e-06
1.79079e-06
3.33928e-06
1.35993e-06
3.32888e-06
9.47648e-07
3.22357e-06
5.64929e-07
3.03057e-06
2.17691e-07
2.75061e-06
-9.43038e-08
2.4018e-06
-3.88045e-07
1.99629e-06
-6.91856e-07
1.54705e-06
-1.0917e-06
1.05956e-06
-1.79766e-06
5.74939e-07
-3.33437e-06
1.99234e-07
-6.11674e-06
-1.02526e-05
2.82302e-07
1.29645e-06
8.2748e-07
2.38479e-06
1.42218e-06
2.68233e-06
2.00901e-06
2.65424e-06
2.53998e-06
2.46536e-06
2.98715e-06
2.19101e-06
3.33698e-06
1.87515e-06
3.58151e-06
1.54626e-06
3.71789e-06
1.22356e-06
3.74705e-06
9.18489e-07
3.67284e-06
6.39138e-07
3.50293e-06
3.87597e-07
3.24486e-06
1.63769e-07
2.90887e-06
-5.20561e-08
2.5096e-06
-2.92581e-07
2.05651e-06
-6.38612e-07
1.54424e-06
-1.28538e-06
9.8556e-07
-2.77569e-06
4.43409e-07
-5.57459e-06
-9.80922e-06
-1.70359e-07
1.46681e-06
3.50735e-07
1.8637e-06
1.05699e-06
1.97607e-06
1.77538e-06
1.93585e-06
2.43444e-06
1.80629e-06
3.00251e-06
1.62295e-06
3.46593e-06
1.41172e-06
3.81698e-06
1.19521e-06
4.05183e-06
9.8871e-07
4.1738e-06
7.9652e-07
4.19013e-06
6.22805e-07
4.11121e-06
4.66515e-07
3.94689e-06
3.28093e-07
3.71652e-06
1.78311e-07
3.42038e-06
3.55982e-09
3.03691e-06
-2.55141e-07
2.52017e-06
-7.68645e-07
1.86872e-06
-2.12424e-06
9.54868e-07
-4.66074e-06
-8.85435e-06
-5.39083e-07
2.00589e-06
1.47161e-07
1.17745e-06
1.04884e-06
1.07439e-06
1.93223e-06
1.05246e-06
2.73759e-06
1.00094e-06
3.44495e-06
9.15582e-07
4.0407e-06
8.15974e-07
4.52485e-06
7.11057e-07
4.89749e-06
6.16069e-07
5.17326e-06
5.20752e-07
5.35349e-06
4.42579e-07
5.46053e-06
3.59472e-07
5.49186e-06
2.96768e-07
5.46132e-06
2.08843e-07
5.32568e-06
1.39207e-07
5.11323e-06
-4.26952e-08
4.71663e-06
-3.72048e-07
3.98804e-06
-1.39564e-06
2.36874e-06
-3.04144e-06
-6.48561e-06
2.00589e-06
3.18335e-06
4.25773e-06
5.31019e-06
6.31113e-06
7.22671e-06
8.04269e-06
8.75374e-06
9.36981e-06
9.89056e-06
1.03331e-05
1.06926e-05
1.09894e-05
1.11982e-05
1.13374e-05
1.12947e-05
1.09227e-05
9.52705e-06
6.48561e-06
)
;

boundaryField
{
    movingWall
    {
        type            calculated;
        value           uniform 0;
    }
    fixedWalls
    {
        type            calculated;
        value           uniform 0;
    }
    frontAndBack
    {
        type            empty;
        value           nonuniform 0();
    }
}


// ************************************************************************* //
