/*--------------------------------*- C++ -*----------------------------------*\
| =========                 |                                                 |
| \\      /  F ield         | OpenFOAM: The Open Source CFD Toolbox           |
|  \\    /   O peration     | Version:  5.0                                   |
|   \\  /    A nd           | Web:      www.OpenFOAM.org                      |
|    \\/     M anipulation  |                                                 |
\*---------------------------------------------------------------------------*/
FoamFile
{
    version     2.0;
    format      ascii;
    class       volVectorField;
    location    "4";
    object      U;
}
// * * * * * * * * * * * * * * * * * * * * * * * * * * * * * * * * * * * * * //

dimensions      [0 1 -1 0 0 0 0];

internalField   nonuniform List<vector> 
400
(
(0.00145536 -0.00144656 0)
(0.00271146 -0.000656057 0)
(-0.00116679 0.000451969 0)
(-0.00924612 0.0032395 0)
(-0.0296862 0.0103021 0)
(-0.0559107 0.0115331 0)
(-0.0750651 0.00938789 0)
(-0.0926336 0.00794143 0)
(-0.10507 0.00574493 0)
(-0.114806 0.00415803 0)
(-0.120561 0.00216958 0)
(-0.123191 0.000668552 0)
(-0.123072 -0.00194936 0)
(-0.118299 -0.00396744 0)
(-0.109971 -0.00684455 0)
(-0.096062 -0.00915293 0)
(-0.0774983 -0.0117725 0)
(-0.0538307 -0.0131464 0)
(-0.0277152 -0.0113786 0)
(-0.00550869 -0.00301827 0)
(0.000132419 -0.00326886 0)
(-0.00499779 0.00355553 0)
(-0.0182501 0.0136278 0)
(-0.0425778 0.0278858 0)
(-0.0634712 0.0323667 0)
(-0.0817431 0.0299941 0)
(-0.0957301 0.0259955 0)
(-0.107734 0.021299 0)
(-0.116101 0.0163899 0)
(-0.12326 0.0110761 0)
(-0.12707 0.00629886 0)
(-0.128654 0.00146363 0)
(-0.127129 -0.00364772 0)
(-0.122854 -0.00934449 0)
(-0.115164 -0.0161107 0)
(-0.103521 -0.0241896 0)
(-0.0874356 -0.0329722 0)
(-0.0667524 -0.0404826 0)
(-0.0411973 -0.0414532 0)
(-0.0143254 -0.0252263 0)
(-0.00352894 0.0036501 0)
(-0.0170603 0.0200255 0)
(-0.0378552 0.0370502 0)
(-0.0576734 0.0467567 0)
(-0.0728235 0.0472634 0)
(-0.0854609 0.0428215 0)
(-0.0952489 0.0363698 0)
(-0.103277 0.0289956 0)
(-0.109112 0.0215343 0)
(-0.112659 0.0147226 0)
(-0.114106 0.00764851 0)
(-0.113801 0.000593818 0)
(-0.111942 -0.00689314 0)
(-0.108046 -0.0149683 0)
(-0.101883 -0.0243637 0)
(-0.0928857 -0.0354114 0)
(-0.0804179 -0.0482838 0)
(-0.0639967 -0.0618901 0)
(-0.0422445 -0.0706779 0)
(-0.0181697 -0.0589509 0)
(-0.00695812 0.0182865 0)
(-0.024087 0.0391109 0)
(-0.0435036 0.054697 0)
(-0.0586714 0.0609238 0)
(-0.0695103 0.0587672 0)
(-0.0783423 0.0524004 0)
(-0.0849066 0.044107 0)
(-0.0899131 0.0349559 0)
(-0.093138 0.025705 0)
(-0.0947908 0.0167442 0)
(-0.0950974 0.00800797 0)
(-0.0941701 -0.000571919 0)
(-0.0920261 -0.00950317 0)
(-0.0885037 -0.0192266 0)
(-0.0836303 -0.030496 0)
(-0.0770049 -0.043965 0)
(-0.0678572 -0.0599444 0)
(-0.0552143 -0.0775843 0)
(-0.0371367 -0.0923494 0)
(-0.0172564 -0.0884652 0)
(-0.00813065 0.0342249 0)
(-0.0248975 0.0559912 0)
(-0.041072 0.0690129 0)
(-0.0524497 0.0719666 0)
(-0.0604742 0.067409 0)
(-0.0668006 0.0590924 0)
(-0.0712732 0.0490663 0)
(-0.0743945 0.0383285 0)
(-0.0761441 0.0276121 0)
(-0.0767064 0.0172948 0)
(-0.0761798 0.00734637 0)
(-0.074685 -0.00235504 0)
(-0.0723212 -0.012184 0)
(-0.0691722 -0.0227979 0)
(-0.0653131 -0.0350687 0)
(-0.0605802 -0.0500008 0)
(-0.0543233 -0.0684157 0)
(-0.0450946 -0.0900642 0)
(-0.0305977 -0.110327 0)
(-0.0157396 -0.113339 0)
(-0.00730968 0.0490469 0)
(-0.0221422 0.0707782 0)
(-0.034339 0.0804144 0)
(-0.0431031 0.0806021 0)
(-0.0491785 0.0738681 0)
(-0.0538215 0.0638279 0)
(-0.0569631 0.0523112 0)
(-0.0589904 0.0402848 0)
(-0.0599538 0.028436 0)
(-0.0599501 0.0170702 0)
(-0.0590302 0.00617876 0)
(-0.0573074 -0.00435052 0)
(-0.0549328 -0.0148386 0)
(-0.0521039 -0.0259166 0)
(-0.0490116 -0.0385696 0)
(-0.0456709 -0.0540905 0)
(-0.041665 -0.073772 0)
(-0.0356263 -0.0981715 0)
(-0.0256863 -0.12463 0)
(-0.0113851 -0.133913 0)
(-0.0059973 0.0621973 0)
(-0.017521 0.082654 0)
(-0.0261669 0.0893412 0)
(-0.0328325 0.0872618 0)
(-0.0373007 0.0787343 0)
(-0.0407139 0.0672612 0)
(-0.0430043 0.0545539 0)
(-0.0444389 0.0415277 0)
(-0.0450486 0.0287698 0)
(-0.0448684 0.0165294 0)
(-0.0439226 0.00484024 0)
(-0.0422948 -0.00637 0)
(-0.0401352 -0.0173522 0)
(-0.0376908 -0.028662 0)
(-0.0352533 -0.0413304 0)
(-0.032969 -0.0569245 0)
(-0.0305862 -0.0772207 0)
(-0.0267584 -0.103647 0)
(-0.0209296 -0.134568 0)
(-0.00955049 -0.151083 0)
(-0.00379004 0.0717807 0)
(-0.0121338 0.0913921 0)
(-0.0176598 0.0958883 0)
(-0.0224787 0.0921199 0)
(-0.0255405 0.0823098 0)
(-0.0279844 0.0698009 0)
(-0.0296777 0.0562283 0)
(-0.0307691 0.0424499 0)
(-0.0312626 0.0289704 0)
(-0.0311453 0.0160168 0)
(-0.0304097 0.00365658 0)
(-0.0291041 -0.00812766 0)
(-0.027361 -0.0194975 0)
(-0.025437 -0.0308976 0)
(-0.0236896 -0.0433393 0)
(-0.0223892 -0.0586167 0)
(-0.0214346 -0.0790023 0)
(-0.0194984 -0.106877 0)
(-0.0169891 -0.141324 0)
(-0.00693935 -0.165032 0)
(-0.00209825 0.0782583 0)
(-0.00661047 0.0969428 0)
(-0.00955298 0.100025 0)
(-0.0124168 0.0952958 0)
(-0.014169 0.0847698 0)
(-0.0157351 0.0716299 0)
(-0.0169043 0.0575025 0)
(-0.0177323 0.0432144 0)
(-0.0181922 0.0292169 0)
(-0.0182385 0.0157242 0)
(-0.0178368 0.00283125 0)
(-0.017003 -0.00941637 0)
(-0.0158464 -0.0210726 0)
(-0.0146123 -0.0324543 0)
(-0.0136725 -0.0444968 0)
(-0.0133587 -0.0591624 0)
(-0.0137833 -0.0792578 0)
(-0.0134692 -0.108166 0)
(-0.0139446 -0.145452 0)
(-0.00551316 -0.176561 0)
(0.000684068 0.0804937 0)
(-0.00114817 0.0996754 0)
(-0.00182965 0.102065 0)
(-0.00275163 0.0968191 0)
(-0.00323449 0.0860804 0)
(-0.00390073 0.0727295 0)
(-0.0044999 0.0583751 0)
(-0.00502901 0.043841 0)
(-0.00543155 0.0295532 0)
(-0.00564667 0.0157223 0)
(-0.00562778 0.00247086 0)
(-0.00536904 -0.0100925 0)
(-0.00495484 -0.0219075 0)
(-0.00460529 -0.0331557 0)
(-0.00466194 -0.0446781 0)
(-0.00542021 -0.0585326 0)
(-0.00737989 -0.078063 0)
(-0.00832587 -0.107732 0)
(-0.0116398 -0.147168 0)
(-0.00373357 -0.186002 0)
(0.00233602 0.0791305 0)
(0.00380153 0.0993808 0)
(0.00536125 0.101811 0)
(0.00646388 0.0967855 0)
(0.00727739 0.0862263 0)
(0.00759999 0.0730401 0)
(0.00768084 0.0587762 0)
(0.00755738 0.044267 0)
(0.00730028 0.0299406 0)
(0.00697151 0.0160129 0)
(0.00661228 0.00263348 0)
(0.00623011 -0.0100323 0)
(0.00575741 -0.0218238 0)
(0.00501996 -0.0327966 0)
(0.0037572 -0.0436955 0)
(0.00182458 -0.0566162 0)
(-0.00187251 -0.0754677 0)
(-0.00372708 -0.105584 0)
(-0.00989671 -0.147148 0)
(-0.00240274 -0.193841 0)
(0.0039405 0.0752139 0)
(0.00818807 0.0967757 0)
(0.0121486 0.099411 0)
(0.0148236 0.0952169 0)
(0.0172088 0.0852761 0)
(0.0187129 0.0725001 0)
(0.0196422 0.0585963 0)
(0.0200792 0.0443802 0)
(0.0200962 0.0302898 0)
(0.0197467 0.0165524 0)
(0.0190497 0.00334142 0)
(0.017997 -0.0091327 0)
(0.0165305 -0.0206473 0)
(0.0145471 -0.0311724 0)
(0.0119234 -0.0413714 0)
(0.00858887 -0.05333 0)
(0.00306964 -0.0714108 0)
(0.000736175 -0.101646 0)
(-0.00874628 -0.145315 0)
(-0.000545081 -0.200209 0)
(0.00542656 0.067468 0)
(0.0121349 0.0910974 0)
(0.0179548 0.0950605 0)
(0.0223874 0.0916634 0)
(0.0263974 0.0827204 0)
(0.0292587 0.0708359 0)
(0.0312318 0.0576408 0)
(0.0324084 0.0440259 0)
(0.0328485 0.0304786 0)
(0.0325889 0.0172594 0)
(0.0316158 0.00456907 0)
(0.0298954 -0.00735517 0)
(0.027377 -0.0182795 0)
(0.0240514 -0.0281568 0)
(0.0199363 -0.0375936 0)
(0.0151243 -0.0486419 0)
(0.00784567 -0.0658253 0)
(0.00525204 -0.0960782 0)
(-0.00802748 -0.14231 0)
(0.00173638 -0.205379 0)
(0.00636271 0.0578294 0)
(0.0148797 0.0839904 0)
(0.0223378 0.0893183 0)
(0.0286875 0.0866363 0)
(0.0343658 0.0787649 0)
(0.0388112 0.0679552 0)
(0.0420778 0.0557474 0)
(0.0442075 0.043046 0)
(0.0452365 0.0303786 0)
(0.0451852 0.0180414 0)
(0.0440183 0.00626391 0)
(0.0416783 -0.00472133 0)
(0.0381365 -0.0146992 0)
(0.0334839 -0.0237016 0)
(0.027865 -0.0323169 0)
(0.0216637 -0.0424528 0)
(0.0127249 -0.0586842 0)
(0.00995915 -0.0890256 0)
(-0.00744034 -0.137998 0)
(0.00529118 -0.209401 0)
(0.00612206 0.045985 0)
(0.0165245 0.0737698 0)
(0.0252351 0.0807752 0)
(0.0332224 0.0792883 0)
(0.040609 0.072764 0)
(0.0467818 0.0633687 0)
(0.0515458 0.0525434 0)
(0.0548383 0.0411648 0)
(0.056641 0.029792 0)
(0.0569479 0.0187559 0)
(0.0557213 0.00831044 0)
(0.0529101 -0.00135397 0)
(0.0485187 -0.0100243 0)
(0.0427703 -0.0179154 0)
(0.0358114 -0.0256569 0)
(0.028426 -0.0349917 0)
(0.0179673 -0.0503751 0)
(0.0151988 -0.0810995 0)
(-0.00640569 -0.133317 0)
(0.0101033 -0.212509 0)
(0.00428871 0.0358239 0)
(0.0147964 0.0647138 0)
(0.025035 0.0719836 0)
(0.0349422 0.0709109 0)
(0.0443099 0.0653258 0)
(0.0523985 0.0572707 0)
(0.0588674 0.0479955 0)
(0.063517 0.0382381 0)
(0.0662715 0.0285334 0)
(0.0671244 0.0192061 0)
(0.0660455 0.0104883 0)
(0.0631072 0.00252001 0)
(0.0583284 -0.00460056 0)
(0.0520096 -0.0112226 0)
(0.0441582 -0.0179643 0)
(0.0360401 -0.026513 0)
(0.0242584 -0.0412083 0)
(0.0219087 -0.0724025 0)
(-0.00446849 -0.128324 0)
(0.0167516 -0.214211 0)
(0.000794169 0.0268977 0)
(0.0117822 0.0515775 0)
(0.022642 0.0592076 0)
(0.0342363 0.0590372 0)
(0.04541 0.0549683 0)
(0.0552662 0.0488007 0)
(0.0633682 0.0416059 0)
(0.0694478 0.0339959 0)
(0.0733574 0.0264195 0)
(0.0751103 0.0191706 0)
(0.0747185 0.0124671 0)
(0.0723169 0.00639729 0)
(0.0679561 0.00094729 0)
(0.0620431 -0.00431643 0)
(0.0542246 -0.00981082 0)
(0.0464613 -0.0172941 0)
(0.0338721 -0.0310657 0)
(0.0321241 -0.0623035 0)
(-0.000521073 -0.12087 0)
(0.0259116 -0.210765 0)
(-0.00576507 0.0265579 0)
(0.000446246 0.0454863 0)
(0.0142494 0.0491614 0)
(0.0282845 0.0480586 0)
(0.0419975 0.0444527 0)
(0.0543732 0.0394892 0)
(0.064811 0.0339309 0)
(0.0731052 0.0283164 0)
(0.0790646 0.022971 0)
(0.0827065 0.0180064 0)
(0.0841046 0.0135325 0)
(0.0835033 0.00953535 0)
(0.080951 0.00602597 0)
(0.0770716 0.00256254 0)
(0.0711645 -0.00112849 0)
(0.0654949 -0.00736234 0)
(0.0531867 -0.0196154 0)
(0.0513138 -0.0498566 0)
(0.0113541 -0.108265 0)
(0.0415828 -0.191947 0)
(-0.0115758 0.0342573 0)
(-0.00672524 0.0237157 0)
(0.0123629 0.0247747 0)
(0.0298665 0.0252409 0)
(0.0466057 0.024207 0)
(0.0618447 0.0221736 0)
(0.0749717 0.0195989 0)
(0.0858714 0.0168637 0)
(0.0945092 0.0141935 0)
(0.101064 0.011687 0)
(0.105631 0.00937146 0)
(0.108524 0.00727596 0)
(0.109711 0.00536694 0)
(0.109781 0.00312027 0)
(0.107525 0.000878837 0)
(0.104729 -0.0044254 0)
(0.0949016 -0.0135956 0)
(0.092611 -0.0389701 0)
(0.0497687 -0.084765 0)
(0.074007 -0.147482 0)
(0.0431736 0.0410386 0)
(0.0489098 0.0296279 0)
(0.0712729 0.0243911 0)
(0.0956771 0.0222938 0)
(0.116237 0.0207557 0)
(0.13512 0.0189948 0)
(0.152169 0.0171538 0)
(0.16771 0.0152109 0)
(0.181117 0.0136565 0)
(0.19274 0.0119635 0)
(0.202465 0.0108838 0)
(0.210403 0.00941302 0)
(0.216996 0.00871446 0)
(0.22143 0.00724375 0)
(0.225265 0.00647708 0)
(0.225447 0.00375158 0)
(0.220851 0.00221545 0)
(0.209429 -0.0070968 0)
(0.162357 -0.0138314 0)
(0.144781 -0.071958 0)
)
;

boundaryField
{
    movingWall
    {
        type            fixedValue;
        value           uniform (1 0 0);
    }
    fixedWalls
    {
        type            noSlip;
    }
    frontAndBack
    {
        type            empty;
    }
}


// ************************************************************************* //
