/*--------------------------------*- C++ -*----------------------------------*\
| =========                 |                                                 |
| \\      /  F ield         | OpenFOAM: The Open Source CFD Toolbox           |
|  \\    /   O peration     | Version:  5.0                                   |
|   \\  /    A nd           | Web:      www.OpenFOAM.org                      |
|    \\/     M anipulation  |                                                 |
\*---------------------------------------------------------------------------*/
FoamFile
{
    version     2.0;
    format      ascii;
    class       volVectorField;
    location    "0.5";
    object      wallShearStress;
}
// * * * * * * * * * * * * * * * * * * * * * * * * * * * * * * * * * * * * * //

dimensions      [0 2 -2 0 0 0 0];

internalField   uniform (0 0 0);

boundaryField
{
    movingWall
    {
        type            calculated;
        value           nonuniform List<vector> 
20
(
(3.07518 -1.24307 0)
(2.34491 -0.851893 0)
(1.68654 -0.591287 0)
(1.25153 -0.357504 0)
(0.995963 -0.211496 0)
(0.835024 -0.129023 0)
(0.728323 -0.080334 0)
(0.657991 -0.049317 0)
(0.614096 -0.0277557 0)
(0.590985 -0.0109839 0)
(0.585968 0.00398943 0)
(0.598629 0.0195918 0)
(0.630791 0.0386338 0)
(0.687242 0.0655433 0)
(0.777339 0.108519 0)
(0.918765 0.184769 0)
(1.15268 0.329288 0)
(1.57561 0.576375 0)
(2.25988 0.865385 0)
(3.04206 1.28026 0)
)
;
    }
    fixedWalls
    {
        type            calculated;
        value           nonuniform List<vector> 
60
(
(-0.00163139 0.000825894 0)
(0.00130796 0.00145963 0)
(0.00525243 -0.0035159 0)
(0.00880861 -0.0131699 0)
(0.0119789 -0.0268336 0)
(0.0149737 -0.0442041 0)
(0.0180004 -0.0652191 0)
(0.021247 -0.0900117 0)
(0.0249052 -0.118884 0)
(0.0292284 -0.152309 0)
(0.0346419 -0.190999 0)
(0.0419348 -0.236079 0)
(0.0525915 -0.289448 0)
(0.0692956 -0.35447 0)
(0.0965011 -0.437187 0)
(0.140313 -0.548954 0)
(0.20141 -0.714744 0)
(0.224895 -0.990237 0)
(-0.105166 -1.4567 0)
(-1.88319 -2.27668 0)
(-0.00175525 -0.000824306 0)
(0.00103459 -0.00165467 0)
(0.00484499 0.00297641 0)
(0.00829521 0.0121733 0)
(0.0114226 0.0253178 0)
(0.0145041 0.0422196 0)
(0.0178335 0.0630198 0)
(0.0216994 0.0881582 0)
(0.0264049 0.118354 0)
(0.0323222 0.15461 0)
(0.0399927 0.198271 0)
(0.0503042 0.25116 0)
(0.064783 0.315884 0)
(0.0859803 0.396404 0)
(0.11772 0.49897 0)
(0.164064 0.634414 0)
(0.219294 0.825674 0)
(0.212863 1.11681 0)
(-0.177061 1.53726 0)
(-1.94668 2.27062 0)
(-0.000874588 0.00159884 0)
(-0.0013799 -0.00154789 0)
(0.00393456 -0.00542631 0)
(0.013444 -0.00818728 0)
(0.0253344 -0.00956979 0)
(0.0379677 -0.00968008 0)
(0.0499157 -0.00871925 0)
(0.060006 -0.00691372 0)
(0.0673375 -0.00448728 0)
(0.0712771 -0.00165949 0)
(0.0714654 0.00134369 0)
(0.0678342 0.00427956 0)
(0.0606295 0.00688255 0)
(0.050439 0.00886569 0)
(0.0382073 0.00993368 0)
(0.025228 0.00981238 0)
(0.0130855 0.00830276 0)
(0.00353808 0.0053657 0)
(-0.0016046 0.00138485 0)
(-0.000899466 -0.00170902 0)
)
;
    }
    frontAndBack
    {
        type            empty;
    }
}


// ************************************************************************* //
