/*--------------------------------*- C++ -*----------------------------------*\
| =========                 |                                                 |
| \\      /  F ield         | OpenFOAM: The Open Source CFD Toolbox           |
|  \\    /   O peration     | Version:  5.0                                   |
|   \\  /    A nd           | Web:      www.OpenFOAM.org                      |
|    \\/     M anipulation  |                                                 |
\*---------------------------------------------------------------------------*/
FoamFile
{
    version     2.0;
    format      ascii;
    class       volScalarField;
    location    "9";
    object      k;
}
// * * * * * * * * * * * * * * * * * * * * * * * * * * * * * * * * * * * * * //

dimensions      [0 2 -2 0 0 0 0];

internalField   nonuniform List<scalar> 
400
(
4.65247e-10
1.76167e-09
1.15618e-08
6.45662e-08
1.76769e-07
3.12285e-07
4.45379e-07
5.72862e-07
6.90962e-07
8.10268e-07
9.29482e-07
1.07347e-06
1.22743e-06
1.29088e-06
1.27151e-06
1.07231e-06
7.19622e-07
4.05588e-07
1.98534e-07
9.53741e-08
5.14003e-09
4.76235e-08
1.54309e-07
4.73073e-07
1.24296e-06
2.74284e-06
4.9477e-06
7.71038e-06
1.03513e-05
1.29551e-05
1.4665e-05
1.56158e-05
1.58876e-05
1.50131e-05
1.28931e-05
9.96549e-06
6.03875e-06
2.64384e-06
1.06022e-06
3.64218e-07
3.98875e-08
2.65021e-07
7.87282e-07
2.34016e-06
6.44247e-06
1.43914e-05
2.68635e-05
4.24377e-05
5.71053e-05
6.57739e-05
7.00348e-05
7.14671e-05
6.88137e-05
6.22088e-05
5.32423e-05
4.02496e-05
2.50907e-05
9.68357e-06
3.08362e-06
7.06432e-07
1.16387e-07
7.93536e-07
2.51149e-06
7.89464e-06
2.23415e-05
5.2047e-05
8.41075e-05
0.00010251
0.000113166
0.00011784
0.00011934
0.000119159
0.000115082
0.000111214
0.000104366
9.29743e-05
6.94839e-05
2.75611e-05
7.38452e-06
1.01713e-06
3.10972e-07
2.15405e-06
6.85114e-06
2.15078e-05
5.41487e-05
9.08229e-05
0.000109047
0.000117944
0.000122175
0.000123601
0.000123991
0.000123091
0.000122641
0.000122183
0.000120382
0.000115573
0.000103511
5.79843e-05
1.38576e-05
1.29209e-06
4.55511e-07
3.58193e-06
1.2522e-05
3.74477e-05
7.99512e-05
0.000103166
0.000113145
0.000117192
0.000118487
0.000117316
0.000116695
0.000117568
0.000121282
0.000123516
0.000124332
0.000123056
0.000117742
8.12978e-05
2.19142e-05
1.52181e-06
6.80826e-07
5.75822e-06
1.95339e-05
5.24513e-05
9.13412e-05
0.00010653
0.000111159
0.000111232
0.000103735
9.87409e-05
9.7056e-05
0.000100661
0.000109264
0.000119783
0.000124671
0.000124821
0.000121837
9.28045e-05
2.97458e-05
1.70008e-06
7.38142e-07
7.04373e-06
2.35095e-05
6.16235e-05
9.68187e-05
0.000105877
0.000106435
9.59904e-05
8.2996e-05
7.75872e-05
7.59629e-05
8.0854e-05
9.06781e-05
0.000106013
0.000121096
0.000124956
0.000122108
9.82134e-05
3.74594e-05
1.84164e-06
7.04791e-07
7.85538e-06
2.66518e-05
6.9078e-05
9.88817e-05
0.000104128
9.89546e-05
8.077e-05
6.82886e-05
6.3145e-05
6.19224e-05
6.75818e-05
7.70614e-05
9.05301e-05
0.00011008
0.000121693
0.000114247
9.97539e-05
4.21303e-05
1.93779e-06
5.92036e-07
7.7056e-06
2.64546e-05
7.02644e-05
0.000101037
0.000103769
9.14974e-05
7.04123e-05
5.89839e-05
5.46987e-05
5.43711e-05
5.9843e-05
6.9009e-05
8.29667e-05
9.59025e-05
0.000118336
0.000108886
9.97079e-05
4.56063e-05
2.04027e-06
4.82448e-07
7.16813e-06
2.51559e-05
6.86928e-05
0.000100586
0.000102862
9.02798e-05
6.89349e-05
5.65952e-05
5.16161e-05
5.16605e-05
5.60453e-05
6.40282e-05
7.75603e-05
8.73731e-05
0.000111289
9.99772e-05
9.55257e-05
4.70517e-05
2.12888e-06
3.9531e-07
6.0513e-06
2.21087e-05
6.40763e-05
9.83518e-05
0.000101588
9.18744e-05
7.0929e-05
5.79109e-05
5.22703e-05
5.21613e-05
5.50476e-05
6.21117e-05
7.42923e-05
8.33616e-05
0.000102587
9.4301e-05
9.35311e-05
4.74619e-05
2.25429e-06
3.13997e-07
4.54253e-06
1.76204e-05
5.46163e-05
9.30673e-05
9.87378e-05
9.3636e-05
7.71533e-05
6.24933e-05
5.5786e-05
5.56774e-05
5.79916e-05
6.30039e-05
7.32586e-05
8.19896e-05
9.65264e-05
8.8094e-05
8.75897e-05
4.51634e-05
2.40501e-06
2.31576e-07
2.99944e-06
1.24695e-05
4.075e-05
8.24374e-05
9.36782e-05
9.22491e-05
8.59417e-05
7.30134e-05
6.48787e-05
6.37351e-05
6.49873e-05
6.80621e-05
7.48678e-05
8.20035e-05
8.97724e-05
8.32678e-05
8.42452e-05
4.16957e-05
2.53852e-06
1.47074e-07
1.70692e-06
7.76868e-06
2.50892e-05
6.44499e-05
8.42911e-05
8.75891e-05
8.56476e-05
8.07625e-05
7.56957e-05
7.38473e-05
7.45649e-05
7.64861e-05
8.07617e-05
8.33541e-05
8.66313e-05
7.98337e-05
7.58201e-05
3.54755e-05
2.5759e-06
6.98284e-08
8.37676e-07
4.14869e-06
1.36641e-05
3.98925e-05
6.52572e-05
7.66044e-05
8.03085e-05
7.95647e-05
7.93616e-05
7.96906e-05
8.12509e-05
8.18786e-05
8.32749e-05
8.30767e-05
8.13284e-05
7.15954e-05
6.68452e-05
3.04114e-05
2.51121e-06
2.31667e-08
3.97205e-07
2.00134e-06
6.49529e-06
1.78155e-05
3.88674e-05
5.26148e-05
6.28355e-05
6.78216e-05
7.12056e-05
7.33831e-05
7.58323e-05
7.82077e-05
7.77257e-05
7.50943e-05
6.81548e-05
5.81549e-05
5.26733e-05
2.13866e-05
2.17832e-06
1.34289e-08
2.03949e-07
9.20944e-07
2.82214e-06
7.00662e-06
1.63829e-05
2.63903e-05
3.34705e-05
3.89758e-05
4.20188e-05
4.49157e-05
4.51082e-05
4.48216e-05
4.3842e-05
4.26269e-05
4.34646e-05
4.50402e-05
4.0276e-05
1.61971e-05
1.91803e-06
3.6561e-08
2.1159e-07
6.97542e-07
1.55773e-06
3.40485e-06
5.71723e-06
1.05756e-05
1.30555e-05
1.71957e-05
1.89238e-05
2.24621e-05
2.42548e-05
2.77436e-05
3.13308e-05
3.45044e-05
4.16017e-05
4.17845e-05
3.18909e-05
8.10388e-06
1.14641e-06
1.35645e-08
3.41035e-08
9.5892e-08
1.83578e-07
4.06686e-07
6.00749e-07
1.08965e-06
1.28913e-06
1.69933e-06
1.80082e-06
2.01257e-06
2.03687e-06
2.09182e-06
2.07599e-06
2.05148e-06
1.93226e-06
1.80396e-06
1.67482e-06
1.39141e-06
7.78638e-07
)
;

boundaryField
{
    movingWall
    {
        type            kqRWallFunction;
        value           nonuniform List<scalar> 
20
(
1.35645e-08
3.41035e-08
9.5892e-08
1.83578e-07
4.06686e-07
6.00749e-07
1.08965e-06
1.28913e-06
1.69933e-06
1.80082e-06
2.01257e-06
2.03687e-06
2.09182e-06
2.07599e-06
2.05148e-06
1.93226e-06
1.80396e-06
1.67482e-06
1.39141e-06
7.78638e-07
)
;
    }
    fixedWalls
    {
        type            kqRWallFunction;
        value           nonuniform List<scalar> 
60
(
4.65247e-10
5.14003e-09
3.98875e-08
1.16387e-07
3.10972e-07
4.55511e-07
6.80826e-07
7.38142e-07
7.04791e-07
5.92036e-07
4.82448e-07
3.9531e-07
3.13997e-07
2.31576e-07
1.47074e-07
6.98284e-08
2.31667e-08
1.34289e-08
3.6561e-08
1.35645e-08
9.53741e-08
3.64218e-07
7.06432e-07
1.01713e-06
1.29209e-06
1.52181e-06
1.70008e-06
1.84164e-06
1.93779e-06
2.04027e-06
2.12888e-06
2.25429e-06
2.40501e-06
2.53852e-06
2.5759e-06
2.51121e-06
2.17832e-06
1.91803e-06
1.14641e-06
7.78638e-07
4.65247e-10
1.76167e-09
1.15618e-08
6.45662e-08
1.76769e-07
3.12285e-07
4.45379e-07
5.72862e-07
6.90962e-07
8.10268e-07
9.29482e-07
1.07347e-06
1.22743e-06
1.29088e-06
1.27151e-06
1.07231e-06
7.19622e-07
4.05588e-07
1.98534e-07
9.53741e-08
)
;
    }
    frontAndBack
    {
        type            empty;
    }
}


// ************************************************************************* //
