/*--------------------------------*- C++ -*----------------------------------*\
| =========                 |                                                 |
| \\      /  F ield         | OpenFOAM: The Open Source CFD Toolbox           |
|  \\    /   O peration     | Version:  5.0                                   |
|   \\  /    A nd           | Web:      www.OpenFOAM.org                      |
|    \\/     M anipulation  |                                                 |
\*---------------------------------------------------------------------------*/
FoamFile
{
    version     2.0;
    format      ascii;
    class       volScalarField;
    location    "9";
    object      nut;
}
// * * * * * * * * * * * * * * * * * * * * * * * * * * * * * * * * * * * * * //

dimensions      [0 2 -1 0 0 0 0];

internalField   nonuniform List<scalar> 
400
(
3.63474e-12
1.37631e-11
9.03266e-11
5.04423e-10
1.38101e-09
2.43972e-09
3.47953e-09
4.47548e-09
5.39814e-09
6.33022e-09
7.26158e-09
8.3865e-09
9.58932e-09
1.0085e-08
9.93365e-09
8.37739e-09
5.62205e-09
3.16865e-09
1.55105e-09
7.4511e-10
4.01565e-11
8.49957e-10
1.95735e-09
5.55428e-09
1.56362e-08
4.06124e-08
8.56115e-08
1.61566e-07
2.45217e-07
3.50807e-07
4.23057e-07
4.63395e-07
4.57447e-07
4.05334e-07
3.21116e-07
2.20482e-07
1.13274e-07
3.97113e-08
1.15131e-08
2.84546e-09
3.11621e-10
4.94815e-09
1.32925e-08
4.16838e-08
1.49893e-07
4.19282e-07
9.66085e-07
1.73527e-06
2.54931e-06
3.07192e-06
3.33197e-06
3.41146e-06
3.16491e-06
2.69813e-06
2.06796e-06
1.32478e-06
6.47647e-07
1.80043e-07
3.65274e-08
5.519e-09
9.09275e-10
1.63231e-08
5.37029e-08
2.0933e-07
8.34637e-07
2.40185e-06
4.742e-06
6.47301e-06
8.01585e-06
8.85349e-06
9.29546e-06
9.38019e-06
8.84732e-06
7.90464e-06
6.53998e-06
4.75966e-06
2.62953e-06
6.87586e-07
1.00835e-07
7.94633e-09
2.42947e-09
4.99233e-08
1.83399e-07
8.05239e-07
2.87353e-06
5.97752e-06
8.99854e-06
1.1094e-05
1.31331e-05
1.42164e-05
1.47471e-05
1.47481e-05
1.39109e-05
1.26057e-05
1.05895e-05
8.05303e-06
5.0519e-06
1.76459e-06
2.11797e-07
1.00944e-08
3.55868e-09
9.25165e-08
4.10163e-07
1.84181e-06
5.60636e-06
9.12248e-06
1.288e-05
1.54655e-05
1.79596e-05
1.90184e-05
1.94785e-05
1.96736e-05
1.87881e-05
1.71319e-05
1.44813e-05
1.13587e-05
7.51432e-06
3.10376e-06
3.79778e-07
1.18891e-08
5.31895e-09
1.65641e-07
7.49179e-07
3.19806e-06
7.9395e-06
1.19519e-05
1.64068e-05
1.93407e-05
2.07308e-05
2.10821e-05
2.12315e-05
2.15216e-05
2.12486e-05
2.01843e-05
1.72113e-05
1.35658e-05
9.09817e-06
4.02787e-06
5.62101e-07
1.32819e-08
5.76673e-09
2.14824e-07
1.03236e-06
4.35714e-06
9.73845e-06
1.41891e-05
1.91824e-05
2.07764e-05
2.0805e-05
2.08925e-05
2.09744e-05
2.15956e-05
2.18214e-05
2.16514e-05
1.96577e-05
1.56092e-05
1.07639e-05
4.93037e-06
7.76649e-07
1.43878e-08
5.50618e-09
2.59551e-07
1.27402e-06
5.32747e-06
1.09132e-05
1.57434e-05
2.05057e-05
2.049e-05
2.01033e-05
1.99523e-05
1.99864e-05
2.08254e-05
2.12296e-05
2.08931e-05
1.99925e-05
1.63738e-05
1.10086e-05
5.39747e-06
9.24231e-07
1.5139e-08
4.62528e-09
2.54391e-07
1.35695e-06
5.6741e-06
1.1623e-05
1.68237e-05
2.06651e-05
1.98929e-05
1.92122e-05
1.89721e-05
1.91369e-05
2.00299e-05
2.07134e-05
2.08436e-05
1.92214e-05
1.70518e-05
1.15143e-05
5.82916e-06
1.06642e-06
1.59396e-08
3.76912e-09
2.24152e-07
1.3146e-06
5.51123e-06
1.14659e-05
1.65699e-05
2.02613e-05
1.95084e-05
1.86166e-05
1.82879e-05
1.85763e-05
1.9371e-05
1.99541e-05
2.02845e-05
1.83482e-05
1.65854e-05
1.10387e-05
5.7799e-06
1.14628e-06
1.66319e-08
3.08836e-09
1.67029e-07
1.13342e-06
5.01051e-06
1.08473e-05
1.57769e-05
1.97787e-05
1.94315e-05
1.85522e-05
1.81777e-05
1.8302e-05
1.87487e-05
1.94617e-05
1.96855e-05
1.77661e-05
1.55777e-05
1.06226e-05
5.74974e-06
1.19828e-06
1.76116e-08
2.4531e-09
1.04242e-07
8.48269e-07
4.05469e-06
9.58778e-06
1.41376e-05
1.82704e-05
1.9291e-05
1.84952e-05
1.81537e-05
1.81775e-05
1.83906e-05
1.84971e-05
1.84589e-05
1.67662e-05
1.46794e-05
9.95346e-06
5.39798e-06
1.15726e-06
1.87892e-08
1.80919e-09
5.53997e-08
5.18281e-07
2.74653e-06
7.69071e-06
1.19245e-05
1.57485e-05
1.86147e-05
1.86622e-05
1.84279e-05
1.82373e-05
1.81111e-05
1.76907e-05
1.6903e-05
1.53211e-05
1.29784e-05
9.0008e-06
5.02481e-06
1.05529e-06
1.98322e-08
1.14901e-09
2.66707e-08
2.6949e-07
1.45493e-06
5.22751e-06
8.99918e-06
1.20296e-05
1.45794e-05
1.60601e-05
1.68341e-05
1.68166e-05
1.66289e-05
1.61136e-05
1.51522e-05
1.34014e-05
1.138e-05
7.92473e-06
4.2604e-06
8.70607e-07
2.01242e-08
5.45534e-10
1.11321e-08
1.10456e-07
6.46811e-07
2.72924e-06
5.87952e-06
8.61275e-06
1.07929e-05
1.20845e-05
1.31135e-05
1.35077e-05
1.35904e-05
1.3206e-05
1.24146e-05
1.11266e-05
9.25464e-06
6.22821e-06
3.41505e-06
7.03246e-07
1.96188e-08
1.8099e-10
5.37404e-09
4.38368e-08
2.23511e-07
9.12854e-07
2.68909e-06
4.55557e-06
6.46913e-06
7.8846e-06
8.94865e-06
9.4997e-06
9.72325e-06
9.7577e-06
9.11978e-06
8.1004e-06
6.3149e-06
4.14914e-06
2.2943e-06
4.41415e-07
1.70181e-08
1.04913e-10
3.18354e-09
1.98793e-08
7.99594e-08
2.54815e-07
7.54803e-07
1.49634e-06
2.27056e-06
3.03507e-06
3.57871e-06
4.06893e-06
4.19044e-06
4.13482e-06
3.89786e-06
3.484e-06
2.99208e-06
2.36095e-06
1.34297e-06
2.7174e-07
1.49846e-08
2.85633e-10
4.44132e-09
1.54495e-08
3.93865e-08
9.91374e-08
1.89065e-07
3.93482e-07
5.26461e-07
7.39102e-07
8.41781e-07
9.95917e-07
1.05265e-06
1.15036e-06
1.18429e-06
1.18862e-06
1.19598e-06
1.0011e-06
5.59089e-07
8.95344e-08
8.95633e-09
1.05973e-10
2.66434e-10
7.49157e-10
1.4342e-09
3.17724e-09
4.69335e-09
8.5129e-09
1.00714e-08
1.3276e-08
1.40689e-08
1.57232e-08
1.59131e-08
1.63423e-08
1.62187e-08
1.60272e-08
1.50958e-08
1.40935e-08
1.30845e-08
1.08704e-08
6.08311e-09
)
;

boundaryField
{
    movingWall
    {
        type            nutkWallFunction;
        Cmu             0.09;
        kappa           0.41;
        E               9.8;
        value           uniform 0;
    }
    fixedWalls
    {
        type            nutkWallFunction;
        Cmu             0.09;
        kappa           0.41;
        E               9.8;
        value           uniform 0;
    }
    frontAndBack
    {
        type            empty;
    }
}


// ************************************************************************* //
