/*--------------------------------*- C++ -*----------------------------------*\
| =========                 |                                                 |
| \\      /  F ield         | OpenFOAM: The Open Source CFD Toolbox           |
|  \\    /   O peration     | Version:  5.0                                   |
|   \\  /    A nd           | Web:      www.OpenFOAM.org                      |
|    \\/     M anipulation  |                                                 |
\*---------------------------------------------------------------------------*/
FoamFile
{
    version     2.0;
    format      ascii;
    class       volScalarField;
    location    "9";
    object      omega;
}
// * * * * * * * * * * * * * * * * * * * * * * * * * * * * * * * * * * * * * //

dimensions      [0 0 -1 0 0 0 0];

internalField   nonuniform List<scalar> 
400
(
128
128
128
128
128
128
128
128
128
128
128
128
128
128
128
128
128
128
128
128
128
56.0305
78.8359
85.1728
79.4924
67.537
57.7925
47.7228
42.2126
36.9295
34.6644
33.6986
34.731
37.0389
40.151
45.1986
53.3108
66.5765
92.0881
128
128
53.5597
59.2278
56.1408
42.9803
34.324
27.8066
24.456
22.4003
21.4113
21.019
20.9491
21.7427
23.0562
25.7463
30.3821
38.7412
53.7846
84.4192
128
128
48.6143
46.7664
37.7139
26.7679
21.6696
17.7367
15.8365
14.1178
13.31
12.8385
12.7032
13.0076
14.0694
15.9581
19.5338
26.4244
40.0838
73.234
128
128
43.1471
37.3565
26.7098
18.844
15.1941
12.1183
10.6314
9.30284
8.69422
8.40782
8.34626
8.81621
9.69263
11.368
14.3515
20.4895
32.86
65.4285
128
128
38.7166
30.5294
20.3321
14.2608
11.309
8.78454
7.57764
6.59738
6.16857
5.99099
5.97594
6.45527
7.20969
8.5857
10.8336
15.669
26.1933
57.7027
128
128
34.7632
26.0737
16.401
11.5046
8.91319
6.77521
5.75117
5.00392
4.68364
4.57131
4.6772
5.14217
5.93445
7.24356
9.20116
13.3913
23.0406
52.9189
128
128
32.7884
22.7726
14.1431
9.9419
7.46184
5.54859
4.62017
3.98924
3.71365
3.62169
3.74401
4.15547
4.89637
6.16025
8.00524
11.3443
19.9201
48.2321
128
128
30.2653
20.9194
12.9664
9.06076
6.61408
4.82571
3.94193
3.39688
3.1648
3.09822
3.24517
3.62991
4.333
5.50608
7.43215
10.3779
18.4816
45.5842
128
128
30.2904
19.4956
12.3834
8.6929
6.16801
4.42763
3.53956
3.07013
2.88312
2.84117
2.98769
3.33161
3.98043
4.98936
6.93978
9.4566
17.105
42.7656
128
128
31.979
19.1358
12.4641
8.77264
6.20775
4.45577
3.5336
3.04005
2.82241
2.78098
2.89327
3.20877
3.82363
4.76194
6.71005
9.05697
16.5272
41.0472
128
128
36.229
19.5061
12.7884
9.06691
6.43903
4.64511
3.65021
3.12152
2.87552
2.85004
2.93608
3.19148
3.77396
4.69217
6.5855
8.87743
16.267
39.6084
128
128
43.5768
20.7722
13.4699
9.70687
6.98404
5.125
3.99944
3.3789
3.07298
3.06299
3.15334
3.40615
3.96875
4.89018
6.57566
8.85059
16.2264
39.026
128
128
54.1419
24.0594
14.8369
10.7191
7.85592
5.85763
4.61688
3.91237
3.52068
3.49476
3.58827
3.84734
4.42927
5.35233
6.91705
9.25115
16.7658
39.5112
128
128
64
28.8273
17.2443
12.329
9.36654
7.28111
5.87457
5.02876
4.49656
4.39133
4.48406
4.74669
5.33003
6.21982
7.6126
10.074
17.7965
40.7481
128
128
75.2488
37.5597
21.1253
14.6167
11.0991
8.8943
7.44089
6.58402
6.05189
5.89964
5.97857
6.20012
6.70784
7.46647
8.78785
11.4953
19.5737
43.2443
128
128
73.9117
45.6544
29.0603
19.5163
14.4538
11.5496
9.71314
8.60178
7.95713
7.72479
7.79907
8.01497
8.52276
9.27045
10.7927
14.0161
22.9583
48.4501
128
128
64.0636
46.3268
35.2946
27.4969
21.7049
17.6365
14.7411
12.8418
11.7413
11.0387
10.7645
10.8401
11.2477
12.2351
14.5266
19.0771
29.9903
59.6049
128
128
47.6411
45.1498
39.5499
34.3447
30.2395
26.877
24.7987
23.2657
22.4806
22.5541
23.0416
24.1174
26.4554
29.029
34.7845
41.7387
57.0408
90.5114
128
128
128
128
128
128
128
128
128
128
128
128
128
128
128
128
128
128
128
128
128
)
;

boundaryField
{
    movingWall
    {
        Cmu             0.09;
        kappa           0.41;
        E               9.8;
        beta1           0.075;
        blended         false;
        type            omegaWallFunction;
        value           nonuniform List<scalar> 
20
(
128
128
128
128
128
128
128
128
128
128
128
128
128
128
128
128
128
128
128
128
)
;
    }
    fixedWalls
    {
        Cmu             0.09;
        kappa           0.41;
        E               9.8;
        beta1           0.075;
        blended         false;
        type            omegaWallFunction;
        value           nonuniform List<scalar> 
60
(
128
128
128
128
128
128
128
128
128
128
128
128
128
128
128
128
128
128
128
128
128
128
128
128
128
128
128
128
128
128
128
128
128
128
128
128
128
128
128
128
128
128
128
128
128
128
128
128
128
128
128
128
128
128
128
128
128
128
128
128
)
;
    }
    frontAndBack
    {
        type            empty;
    }
}


// ************************************************************************* //
