/*--------------------------------*- C++ -*----------------------------------*\
| =========                 |                                                 |
| \\      /  F ield         | OpenFOAM: The Open Source CFD Toolbox           |
|  \\    /   O peration     | Version:  5.0                                   |
|   \\  /    A nd           | Web:      www.OpenFOAM.org                      |
|    \\/     M anipulation  |                                                 |
\*---------------------------------------------------------------------------*/
FoamFile
{
    version     2.0;
    format      ascii;
    class       volScalarField;
    location    "9";
    object      p;
}
// * * * * * * * * * * * * * * * * * * * * * * * * * * * * * * * * * * * * * //

dimensions      [0 2 -2 0 0 0 0];

internalField   nonuniform List<scalar> 
400
(
7.32734e-08
-0.000108675
-0.000270792
-0.000165305
-0.000906254
-0.00272132
-0.0049652
-0.00703987
-0.00872183
-0.00987209
-0.0104444
-0.0103771
-0.00962818
-0.00803001
-0.00548976
-0.00199287
0.00230849
0.00680153
0.00999279
0.0112676
1.68492e-05
-6.28278e-05
-0.000251546
-0.000888601
-0.00219505
-0.00411756
-0.00614426
-0.0080901
-0.00964254
-0.0107137
-0.0112461
-0.0112145
-0.010562
-0.0091906
-0.00700327
-0.00396691
-0.000112598
0.00418486
0.00785485
0.00991989
0.000345442
-6.64073e-05
-0.000884618
-0.00226845
-0.00417191
-0.00622
-0.00822276
-0.0100319
-0.0113593
-0.0122218
-0.012602
-0.0124919
-0.0118527
-0.0106751
-0.00890936
-0.00651474
-0.00344504
0.000254594
0.00394657
0.00643022
0.00022359
-0.000548881
-0.00206265
-0.00416467
-0.00644684
-0.00856768
-0.0103702
-0.0117417
-0.01273
-0.0133503
-0.0135896
-0.0134488
-0.0129093
-0.0119481
-0.01055
-0.00870772
-0.00637321
-0.00345795
-0.000282772
0.0021021
-0.000678629
-0.00173585
-0.00378319
-0.00624292
-0.00854695
-0.0104613
-0.0119526
-0.0130519
-0.0138385
-0.0143232
-0.0145082
-0.0143778
-0.01392
-0.0131243
-0.0119949
-0.0105434
-0.00878266
-0.00656804
-0.00421095
-0.00203738
-0.00235195
-0.00352085
-0.00572472
-0.0081441
-0.0102501
-0.0118807
-0.0131162
-0.0140448
-0.0147148
-0.0151285
-0.0152918
-0.0151906
-0.0148199
-0.0141724
-0.0132552
-0.0120853
-0.0107429
-0.00906683
-0.00736534
-0.00555264
-0.00432747
-0.00545564
-0.0075278
-0.00973702
-0.0115698
-0.0129391
-0.0139983
-0.0148099
-0.0154019
-0.0157724
-0.015927
-0.015855
-0.0155574
-0.0150322
-0.0142889
-0.0133267
-0.0122911
-0.0109919
-0.00979517
-0.00832336
-0.00613583
-0.0071459
-0.00899071
-0.0109586
-0.0125405
-0.0137136
-0.0146534
-0.0153834
-0.01592
-0.0162608
-0.0164112
-0.016364
-0.0161222
-0.015688
-0.0150781
-0.01426
-0.0134534
-0.0123803
-0.0115574
-0.0103839
-0.00746755
-0.00837136
-0.0100187
-0.0117908
-0.0131942
-0.0142391
-0.0150999
-0.0157738
-0.0162711
-0.0165906
-0.0167371
-0.016707
-0.0165034
-0.016128
-0.0156145
-0.0148726
-0.0142578
-0.0132518
-0.0127682
-0.0117903
-0.00823732
-0.00904975
-0.0105688
-0.0122285
-0.0135299
-0.0145118
-0.0153334
-0.0159764
-0.0164523
-0.0167602
-0.0169043
-0.0168829
-0.0167
-0.0163516
-0.0159013
-0.0151623
-0.0147342
-0.0136265
-0.0134905
-0.0125778
-0.00840832
-0.00918563
-0.0106366
-0.0122634
-0.013552
-0.0145389
-0.0153532
-0.0159903
-0.0164624
-0.0167686
-0.0169115
-0.0168895
-0.0167085
-0.0163615
-0.0159208
-0.0151535
-0.0148405
-0.0135469
-0.0137594
-0.0127271
-0.00800057
-0.00880122
-0.0102386
-0.0119131
-0.0132572
-0.0142999
-0.0151453
-0.015806
-0.0162949
-0.0166112
-0.0167559
-0.0167265
-0.0165297
-0.0161624
-0.0156665
-0.0149058
-0.0144822
-0.0130924
-0.0135021
-0.0122332
-0.00711794
-0.00799302
-0.00945521
-0.0111843
-0.012646
-0.0137897
-0.0147054
-0.0154208
-0.0159491
-0.0162884
-0.0164386
-0.0163951
-0.0161652
-0.0157452
-0.0151607
-0.014363
-0.0136943
-0.0122709
-0.0126987
-0.0111001
-0.00604866
-0.00696111
-0.00839805
-0.010083
-0.0116861
-0.0129757
-0.0140103
-0.0148208
-0.0154179
-0.015797
-0.0159588
-0.0158974
-0.0156191
-0.0151181
-0.014416
-0.0135012
-0.0125302
-0.0110643
-0.0113563
-0.0093702
-0.00504913
-0.00590527
-0.00718112
-0.0086909
-0.0103438
-0.0118141
-0.0130344
-0.0139952
-0.0147005
-0.0151445
-0.0153292
-0.0152492
-0.0149077
-0.0142963
-0.0134335
-0.0123169
-0.0110326
-0.00947216
-0.00954758
-0.00710135
-0.00459178
-0.00505679
-0.00585887
-0.007041
-0.00861972
-0.010269
-0.0117316
-0.0129111
-0.0137842
-0.0143348
-0.014565
-0.0144681
-0.0140541
-0.0133057
-0.0122395
-0.0108618
-0.0092781
-0.00755863
-0.00732102
-0.00432455
-0.00463082
-0.00452925
-0.00449232
-0.00518755
-0.00660477
-0.00836445
-0.0100825
-0.0115302
-0.0126315
-0.0133506
-0.0136813
-0.0136068
-0.0131197
-0.0122221
-0.0109305
-0.00926042
-0.00734411
-0.0054072
-0.0046936
-0.000901217
-0.00452362
-0.00385549
-0.0030391
-0.00325528
-0.00449937
-0.006309
-0.00822503
-0.00990358
-0.0112378
-0.012143
-0.012594
-0.0125649
-0.012063
-0.0110667
-0.00959272
-0.0076559
-0.00542372
-0.00307374
-0.00126904
0.0046024
-0.00388605
-0.0029135
-0.00173099
-0.00170469
-0.0028047
-0.00461861
-0.00666304
-0.0085575
-0.0100915
-0.0111763
-0.0117521
-0.0118088
-0.0113194
-0.0102813
-0.00869639
-0.00654801
-0.00382292
-0.00033899
0.00513831
0.0177108
-0.00525254
-0.00201221
-0.000657431
-0.000719848
-0.00172518
-0.00350711
-0.00562747
-0.00771063
-0.0094185
-0.0106408
-0.0113171
-0.0114481
-0.0110219
-0.0100412
-0.00846548
-0.0061315
-0.00215113
0.00525934
0.0194935
0.0421427
)
;

boundaryField
{
    movingWall
    {
        type            zeroGradient;
    }
    fixedWalls
    {
        type            zeroGradient;
    }
    frontAndBack
    {
        type            empty;
    }
}


// ************************************************************************* //
