/*--------------------------------*- C++ -*----------------------------------*\
| =========                 |                                                 |
| \\      /  F ield         | OpenFOAM: The Open Source CFD Toolbox           |
|  \\    /   O peration     | Version:  5.0                                   |
|   \\  /    A nd           | Web:      www.OpenFOAM.org                      |
|    \\/     M anipulation  |                                                 |
\*---------------------------------------------------------------------------*/
FoamFile
{
    version     2.0;
    format      ascii;
    class       surfaceScalarField;
    location    "9";
    object      phi;
}
// * * * * * * * * * * * * * * * * * * * * * * * * * * * * * * * * * * * * * //

dimensions      [0 3 -1 0 0 0 0];

internalField   nonuniform List<scalar> 
760
(
2.91879e-07
-2.91886e-07
1.61453e-07
1.30425e-07
-5.59142e-07
7.20595e-07
-2.10593e-06
1.54679e-06
-3.93603e-06
1.8301e-06
-5.47976e-06
1.54373e-06
-6.78852e-06
1.30876e-06
-7.72575e-06
9.37228e-07
-8.45684e-06
7.31094e-07
-8.92088e-06
4.64034e-07
-9.21939e-06
2.98512e-07
-9.28497e-06
6.55803e-08
-9.1845e-06
-1.00473e-07
-8.85567e-06
-3.28825e-07
-8.30098e-06
-5.54688e-07
-7.3675e-06
-9.33483e-07
-5.99325e-06
-1.37425e-06
-4.01236e-06
-1.98089e-06
-1.6397e-06
-2.37266e-06
-1.6397e-06
-2.87342e-07
-4.54363e-09
-1.28814e-06
1.13122e-06
-3.02654e-06
2.45899e-06
-4.72771e-06
3.24797e-06
-5.92618e-06
3.02857e-06
-7.0152e-06
2.63275e-06
-7.80541e-06
2.09897e-06
-8.48712e-06
1.61894e-06
-8.93491e-06
1.17888e-06
-9.21843e-06
7.4755e-07
-9.30099e-06
3.81073e-07
-9.215e-06
-2.04072e-08
-9.00402e-06
-3.1146e-07
-8.65405e-06
-6.78787e-07
-8.09916e-06
-1.10958e-06
-7.32674e-06
-1.7059e-06
-6.18406e-06
-2.51693e-06
-4.56257e-06
-3.60238e-06
-2.34769e-06
-4.58754e-06
-3.98739e-06
-1.06159e-06
1.05704e-06
-2.65688e-06
2.72651e-06
-4.18359e-06
3.9857e-06
-5.28887e-06
4.35325e-06
-6.12555e-06
3.86525e-06
-6.7661e-06
3.2733e-06
-7.13921e-06
2.47208e-06
-7.36472e-06
1.84445e-06
-7.36975e-06
1.18392e-06
-7.34018e-06
7.17974e-07
-7.23734e-06
2.78234e-07
-7.1575e-06
-1.00251e-07
-6.93038e-06
-5.3857e-07
-6.62792e-06
-9.81248e-07
-6.19192e-06
-1.54559e-06
-5.65395e-06
-2.24387e-06
-4.94087e-06
-3.23001e-06
-3.90892e-06
-4.63433e-06
-2.29834e-06
-6.19811e-06
-6.28573e-06
-1.40067e-06
2.45772e-06
-2.96426e-06
4.2901e-06
-4.16419e-06
5.18563e-06
-4.90387e-06
5.09293e-06
-5.3491e-06
4.31049e-06
-5.49998e-06
3.42418e-06
-5.52122e-06
2.49332e-06
-5.5156e-06
1.83882e-06
-5.53718e-06
1.20551e-06
-5.54713e-06
7.27924e-07
-5.50084e-06
2.31941e-07
-5.38834e-06
-2.12754e-07
-5.2183e-06
-7.08607e-07
-4.95842e-06
-1.24113e-06
-4.59533e-06
-1.90868e-06
-4.12796e-06
-2.71124e-06
-3.59462e-06
-3.76335e-06
-2.9021e-06
-5.32685e-06
-1.80039e-06
-7.29983e-06
-8.08612e-06
-1.41176e-06
3.86947e-06
-2.68525e-06
5.5636e-06
-3.51401e-06
6.01439e-06
-3.96455e-06
5.54347e-06
-4.11724e-06
4.46318e-06
-4.14664e-06
3.45357e-06
-4.19429e-06
2.54097e-06
-4.23909e-06
1.88362e-06
-4.28305e-06
1.24947e-06
-4.29307e-06
7.37942e-07
-4.26395e-06
2.02824e-07
-4.17089e-06
-3.05814e-07
-4.01287e-06
-8.66623e-07
-3.77579e-06
-1.47821e-06
-3.47173e-06
-2.21275e-06
-3.08037e-06
-3.1026e-06
-2.66231e-06
-4.18141e-06
-2.22364e-06
-5.76553e-06
-1.41977e-06
-8.10369e-06
-9.50589e-06
-1.1569e-06
5.02637e-06
-2.07401e-06
6.48071e-06
-2.67152e-06
6.6119e-06
-2.95704e-06
5.82898e-06
-3.05042e-06
4.55657e-06
-3.09014e-06
3.49329e-06
-3.16576e-06
2.61659e-06
-3.22859e-06
1.94645e-06
-3.27976e-06
1.30064e-06
-3.29038e-06
7.4857e-07
-3.26425e-06
1.76688e-07
-3.18475e-06
-3.85309e-07
-3.05011e-06
-1.00126e-06
-2.84893e-06
-1.67939e-06
-2.58829e-06
-2.4734e-06
-2.24963e-06
-3.44125e-06
-1.86336e-06
-4.56767e-06
-1.47568e-06
-6.15321e-06
-1.08114e-06
-8.49823e-06
-1.0587e-05
-8.27543e-07
5.85392e-06
-1.46916e-06
7.12233e-06
-1.89438e-06
7.03711e-06
-2.07316e-06
6.00776e-06
-2.15721e-06
4.64062e-06
-2.2282e-06
3.56428e-06
-2.31471e-06
2.70309e-06
-2.37718e-06
2.00892e-06
-2.42511e-06
1.34857e-06
-2.43532e-06
7.58782e-07
-2.41539e-06
1.56751e-07
-2.3544e-06
-4.4629e-07
-2.25292e-06
-1.10274e-06
-2.10098e-06
-1.83133e-06
-1.90431e-06
-2.67007e-06
-1.6566e-06
-3.68897e-06
-1.35908e-06
-4.86519e-06
-1.08259e-06
-6.4297e-06
-8.02284e-07
-8.77854e-06
-1.13893e-05
-4.87729e-07
6.34165e-06
-9.03978e-07
7.53858e-06
-1.18541e-06
7.31854e-06
-1.31872e-06
6.14108e-06
-1.40552e-06
4.72742e-06
-1.48609e-06
3.64485e-06
-1.56852e-06
2.78553e-06
-1.62545e-06
2.06585e-06
-1.66634e-06
1.38946e-06
-1.67629e-06
7.68733e-07
-1.66382e-06
1.44285e-07
-1.62128e-06
-4.88839e-07
-1.55052e-06
-1.1735e-06
-1.44237e-06
-1.93948e-06
-1.29982e-06
-2.81261e-06
-1.12314e-06
-3.86565e-06
-8.93848e-07
-5.09448e-06
-6.9281e-07
-6.63074e-06
-5.88727e-07
-8.88262e-06
-1.1978e-05
-2.12184e-07
6.55383e-06
-4.30666e-07
7.75706e-06
-5.87375e-07
7.47525e-06
-6.83567e-07
6.23727e-06
-7.55626e-07
4.79948e-06
-8.26183e-07
3.7154e-06
-8.95525e-07
2.85487e-06
-9.43899e-07
2.11422e-06
-9.78563e-07
1.42412e-06
-9.915e-07
7.8167e-07
-9.89652e-07
1.42437e-07
-9.68926e-07
-5.09566e-07
-9.33039e-07
-1.20938e-06
-8.75317e-07
-1.9972e-06
-7.9986e-07
-2.88807e-06
-7.02785e-07
-3.96272e-06
-5.9159e-07
-5.20568e-06
-4.83434e-07
-6.73889e-06
-4.25816e-07
-8.94024e-06
-1.24039e-05
6.89304e-08
6.4849e-06
-1.69592e-09
7.82769e-06
-4.26342e-08
7.51619e-06
-7.88637e-08
6.2735e-06
-1.40996e-07
4.86161e-06
-2.09965e-07
3.78437e-06
-2.63585e-07
2.90849e-06
-3.02438e-07
2.15308e-06
-3.31969e-07
1.45365e-06
-3.49405e-07
7.99107e-07
-3.59777e-07
1.52808e-07
-3.60519e-07
-5.08823e-07
-3.55427e-07
-1.21448e-06
-3.48493e-07
-2.00414e-06
-3.18224e-07
-2.91834e-06
-3.02842e-07
-3.97811e-06
-2.49058e-07
-5.25946e-06
-2.39075e-07
-6.74888e-06
-3.1889e-07
-8.86042e-06
-1.27227e-05
3.2645e-07
6.15845e-06
4.63918e-07
7.69022e-06
5.26169e-07
7.45394e-06
4.73172e-07
6.32649e-06
4.21636e-07
4.91315e-06
3.79892e-07
3.82612e-06
3.47278e-07
2.9411e-06
3.22079e-07
2.17828e-06
2.98333e-07
1.4774e-06
2.76946e-07
8.20493e-07
2.53673e-07
1.76081e-07
2.2853e-07
-4.83679e-07
2.00324e-07
-1.18627e-06
1.51137e-07
-1.95495e-06
1.32329e-07
-2.89953e-06
7.43389e-09
-3.85321e-06
4.78816e-08
-5.29991e-06
-1.04572e-07
-6.59642e-06
-2.14275e-07
-8.75072e-06
-1.2937e-05
5.67518e-07
5.59093e-06
9.08436e-07
7.3493e-06
1.09469e-06
7.26768e-06
1.06267e-06
6.35852e-06
1.01641e-06
4.95941e-06
9.85203e-07
3.85732e-06
9.68911e-07
2.9574e-06
9.5777e-07
2.18942e-06
9.41124e-07
1.49405e-06
9.17452e-07
8.44164e-07
8.81372e-07
2.12162e-07
8.31639e-07
-4.33946e-07
7.64061e-07
-1.11869e-06
6.88196e-07
-1.87909e-06
5.68967e-07
-2.7803e-06
4.59849e-07
-3.74409e-06
3.1342e-07
-5.15348e-06
6.25567e-08
-6.34556e-06
-1.24485e-07
-8.56368e-06
-1.30615e-05
8.47388e-07
4.74354e-06
1.31899e-06
6.8777e-06
1.62488e-06
6.96179e-06
1.6773e-06
6.3061e-06
1.63739e-06
4.99933e-06
1.62476e-06
3.86995e-06
1.62819e-06
2.95396e-06
1.63239e-06
2.18522e-06
1.62406e-06
1.50238e-06
1.59891e-06
8.69316e-07
1.54956e-06
2.61508e-07
1.47447e-06
-3.5885e-07
1.36954e-06
-1.01377e-06
1.23847e-06
-1.74801e-06
1.04835e-06
-2.59018e-06
8.7208e-07
-3.56782e-06
5.85888e-07
-4.86729e-06
2.58474e-07
-6.01815e-06
1.7528e-08
-8.32273e-06
-1.3044e-05
1.08451e-06
3.65903e-06
1.76798e-06
6.19423e-06
2.17855e-06
6.55122e-06
2.35495e-06
6.1297e-06
2.33695e-06
5.01732e-06
2.33709e-06
3.86981e-06
2.35443e-06
2.93662e-06
2.37267e-06
2.16698e-06
2.37285e-06
1.5022e-06
2.34728e-06
8.94886e-07
2.28757e-06
3.21213e-07
2.18952e-06
-2.60797e-07
2.04695e-06
-8.71198e-07
1.86286e-06
-1.56393e-06
1.62256e-06
-2.34988e-06
1.36414e-06
-3.30941e-06
9.64861e-07
-4.468e-06
5.18105e-07
-5.57139e-06
1.30961e-07
-7.93559e-06
-1.2913e-05
1.30931e-06
2.34972e-06
2.08358e-06
5.41996e-06
2.61762e-06
6.01718e-06
2.98794e-06
5.75938e-06
3.12458e-06
4.88069e-06
3.17022e-06
3.82417e-06
3.19846e-06
2.90838e-06
3.2246e-06
2.14084e-06
3.22904e-06
1.49776e-06
3.20092e-06
9.23005e-07
3.13207e-06
3.90071e-07
3.01291e-06
-1.41639e-07
2.83372e-06
-6.92011e-07
2.60044e-06
-1.33065e-06
2.29636e-06
-2.0458e-06
1.92888e-06
-2.94193e-06
1.38851e-06
-3.92763e-06
7.60605e-07
-4.94348e-06
2.89449e-07
-7.46443e-06
-1.26236e-05
1.34193e-06
1.0078e-06
2.25342e-06
4.50847e-06
2.95026e-06
5.32034e-06
3.55467e-06
5.15496e-06
3.9071e-06
4.52826e-06
4.08814e-06
3.64312e-06
4.18646e-06
2.81006e-06
4.24285e-06
2.08444e-06
4.2567e-06
1.48392e-06
4.22868e-06
9.51024e-07
4.14258e-06
4.76165e-07
4.01465e-06
-1.37024e-08
3.79453e-06
-4.719e-07
3.50907e-06
-1.04519e-06
3.11979e-06
-1.65651e-06
2.6102e-06
-2.43235e-06
1.92449e-06
-3.24193e-06
1.12089e-06
-4.13988e-06
5.26635e-07
-6.87018e-06
-1.20969e-05
7.80833e-07
2.26964e-07
1.94657e-06
3.34274e-06
3.01846e-06
4.24846e-06
3.90663e-06
4.26679e-06
4.56328e-06
3.8716e-06
4.99564e-06
3.21076e-06
5.26747e-06
2.53824e-06
5.42558e-06
1.92633e-06
5.49972e-06
1.40978e-06
5.50964e-06
9.41101e-07
5.4349e-06
5.50908e-07
5.26029e-06
1.60901e-07
5.00266e-06
-2.14271e-07
4.64133e-06
-6.83856e-07
4.124e-06
-1.13917e-06
3.43635e-06
-1.7447e-06
2.51241e-06
-2.31799e-06
1.51104e-06
-3.13851e-06
8.60033e-07
-6.21917e-06
-1.12369e-05
-1.61854e-07
3.88819e-07
1.23802e-06
1.94286e-06
2.57132e-06
2.91516e-06
3.80047e-06
3.03764e-06
4.81023e-06
2.86185e-06
5.5843e-06
2.43669e-06
6.13084e-06
1.9917e-06
6.52431e-06
1.53286e-06
6.73426e-06
1.19983e-06
6.83573e-06
8.39635e-07
6.78141e-06
6.05224e-07
6.65048e-06
2.91829e-07
6.33645e-06
9.97579e-08
5.8946e-06
-2.42006e-07
5.22406e-06
-4.68625e-07
4.37807e-06
-8.9871e-07
3.19071e-06
-1.13064e-06
2.17631e-06
-2.12411e-06
1.41411e-06
-5.45697e-06
-9.82279e-06
-1.18854e-06
1.57735e-06
-1.63125e-07
9.17448e-07
1.4415e-06
1.31053e-06
2.99674e-06
1.48241e-06
4.35159e-06
1.50699e-06
5.44518e-06
1.3431e-06
6.26695e-06
1.16993e-06
6.8629e-06
9.36911e-07
7.26484e-06
7.97889e-07
7.48068e-06
6.23793e-07
7.55541e-06
5.30496e-07
7.45634e-06
3.909e-07
7.23152e-06
3.24578e-07
6.80575e-06
1.83765e-07
6.22994e-06
1.07179e-07
5.42325e-06
-9.20182e-08
4.58391e-06
-2.91293e-07
3.87881e-06
-1.41901e-06
2.62739e-06
-4.20555e-06
-7.1954e-06
1.57735e-06
2.4948e-06
3.80533e-06
5.28774e-06
6.79473e-06
8.13784e-06
9.30776e-06
1.02447e-05
1.10426e-05
1.16664e-05
1.21969e-05
1.25878e-05
1.29123e-05
1.30961e-05
1.32033e-05
1.31113e-05
1.282e-05
1.1401e-05
7.1954e-06
)
;

boundaryField
{
    movingWall
    {
        type            calculated;
        value           uniform 0;
    }
    fixedWalls
    {
        type            calculated;
        value           uniform 0;
    }
    frontAndBack
    {
        type            empty;
        value           nonuniform 0();
    }
}


// ************************************************************************* //
