/*--------------------------------*- C++ -*----------------------------------*\
| =========                 |                                                 |
| \\      /  F ield         | OpenFOAM: The Open Source CFD Toolbox           |
|  \\    /   O peration     | Version:  5.0                                   |
|   \\  /    A nd           | Web:      www.OpenFOAM.org                      |
|    \\/     M anipulation  |                                                 |
\*---------------------------------------------------------------------------*/
FoamFile
{
    version     2.0;
    format      ascii;
    class       volVectorField;
    location    "9";
    object      U;
}
// * * * * * * * * * * * * * * * * * * * * * * * * * * * * * * * * * * * * * //

dimensions      [0 1 -1 0 0 0 0];

internalField   nonuniform List<vector> 
400
(
(0.00263711 -0.00411795 0)
(0.00854813 -0.00197319 0)
(-0.00305874 0.00170933 0)
(-0.0159257 0.00947348 0)
(-0.0656144 0.0204097 0)
(-0.0981858 0.0149712 0)
(-0.128053 0.0149414 0)
(-0.147778 0.0113771 0)
(-0.164546 0.0100362 0)
(-0.175003 0.00721467 0)
(-0.18285 0.00586293 0)
(-0.186287 0.00352021 0)
(-0.18718 0.00165753 0)
(-0.18234 -0.00159011 0)
(-0.172764 -0.00424652 0)
(-0.155712 -0.00947097 0)
(-0.131122 -0.0141629 0)
(-0.0966985 -0.0203123 0)
(-0.0576125 -0.0196754 0)
(-0.0122185 -0.00477524 0)
(-0.000823902 -0.00879008 0)
(-0.0103279 0.00765629 0)
(-0.0385308 0.0300187 0)
(-0.079458 0.0512847 0)
(-0.111257 0.0484399 0)
(-0.132655 0.042443 0)
(-0.151052 0.0350743 0)
(-0.165112 0.0246081 0)
(-0.175995 0.0180181 0)
(-0.182689 0.0102029 0)
(-0.186717 0.00500022 0)
(-0.187049 -0.00157002 0)
(-0.184551 -0.0067029 0)
(-0.178737 -0.0138449 0)
(-0.168962 -0.0213609 0)
(-0.154027 -0.0327904 0)
(-0.132991 -0.0469182 0)
(-0.10417 -0.0656315 0)
(-0.0696939 -0.0789872 0)
(-0.0199904 -0.0560542 0)
(-0.00844133 0.00898524 0)
(-0.0342871 0.0405006 0)
(-0.0695155 0.0665419 0)
(-0.0991679 0.0760898 0)
(-0.117835 0.0683111 0)
(-0.130691 0.0585323 0)
(-0.142033 0.0442207 0)
(-0.146854 0.0348832 0)
(-0.147417 0.024424 0)
(-0.147708 0.0159913 0)
(-0.146065 0.00768998 0)
(-0.144584 0.000202823 0)
(-0.142046 -0.00761387 0)
(-0.136774 -0.0158769 0)
(-0.129869 -0.0266454 0)
(-0.11943 -0.0407645 0)
(-0.1054 -0.0614105 0)
(-0.0851086 -0.0882841 0)
(-0.0621648 -0.115336 0)
(-0.0225309 -0.112876 0)
(-0.0118088 0.0357298 0)
(-0.044958 0.0715308 0)
(-0.076007 0.0926019 0)
(-0.0955184 0.0933736 0)
(-0.105555 0.0808998 0)
(-0.111244 0.0666825 0)
(-0.110754 0.0503112 0)
(-0.109069 0.0370184 0)
(-0.111069 0.0239753 0)
(-0.110715 0.0143006 0)
(-0.111052 0.0046537 0)
(-0.109364 -0.00347449 0)
(-0.106798 -0.0126239 0)
(-0.102432 -0.0220607 0)
(-0.0963211 -0.0339514 0)
(-0.0888743 -0.0487119 0)
(-0.078211 -0.0699168 0)
(-0.0614849 -0.102198 0)
(-0.0478699 -0.139386 0)
(-0.0175189 -0.147802 0)
(-0.0119477 0.0622262 0)
(-0.0456538 0.0979972 0)
(-0.0665042 0.110362 0)
(-0.0795237 0.105197 0)
(-0.0826177 0.0879625 0)
(-0.0829961 0.0698769 0)
(-0.0820874 0.0513971 0)
(-0.0841404 0.0378657 0)
(-0.0851476 0.024857 0)
(-0.0860986 0.014679 0)
(-0.085906 0.0041527 0)
(-0.0848726 -0.00557166 0)
(-0.0821613 -0.0164425 0)
(-0.0782902 -0.0280592 0)
(-0.0725429 -0.041917 0)
(-0.0661483 -0.0583262 0)
(-0.059361 -0.0788775 0)
(-0.0436246 -0.110791 0)
(-0.0421678 -0.157954 0)
(-0.00774868 -0.180798 0)
(-0.0103304 0.0874294 0)
(-0.0374069 0.11928 0)
(-0.0506434 0.125369 0)
(-0.0608487 0.113714 0)
(-0.0598935 0.0911889 0)
(-0.0606247 0.0702942 0)
(-0.0615119 0.0521756 0)
(-0.0642048 0.0387504 0)
(-0.064886 0.0257807 0)
(-0.0661653 0.0149819 0)
(-0.0656833 0.00380179 0)
(-0.0649536 -0.00698458 0)
(-0.0625529 -0.0188643 0)
(-0.0593112 -0.031916 0)
(-0.054313 -0.0473132 0)
(-0.0479598 -0.0658029 0)
(-0.0441202 -0.0872739 0)
(-0.0274675 -0.118385 0)
(-0.0327248 -0.165159 0)
(-0.0045398 -0.201541 0)
(-0.00782558 0.108095 0)
(-0.0268007 0.134689 0)
(-0.036505 0.135381 0)
(-0.0433027 0.117755 0)
(-0.0410265 0.0920032 0)
(-0.0433128 0.0708455 0)
(-0.0448372 0.0534029 0)
(-0.0472368 0.0396752 0)
(-0.0478802 0.0265414 0)
(-0.0489991 0.0150194 0)
(-0.0485706 0.00321318 0)
(-0.0480039 -0.00854843 0)
(-0.0461776 -0.0213757 0)
(-0.0437683 -0.0355574 0)
(-0.0402736 -0.051989 0)
(-0.03421 -0.0719871 0)
(-0.0340686 -0.0946834 0)
(-0.0174882 -0.126437 0)
(-0.0283028 -0.1737 0)
(0.00117419 -0.221095 0)
(-0.00420235 0.121574 0)
(-0.0164855 0.1462 0)
(-0.0230579 0.143529 0)
(-0.0275781 0.12189 0)
(-0.0256293 0.0943542 0)
(-0.0288292 0.0723797 0)
(-0.0302279 0.0550105 0)
(-0.0322184 0.0407709 0)
(-0.0328289 0.0273763 0)
(-0.0337054 0.0152315 0)
(-0.0334381 0.0029541 0)
(-0.0330304 -0.00947172 0)
(-0.0317547 -0.022939 0)
(-0.0299985 -0.0379344 0)
(-0.0281759 -0.0550181 0)
(-0.021937 -0.0758835 0)
(-0.0251065 -0.0992581 0)
(-0.00785755 -0.130051 0)
(-0.0224221 -0.175729 0)
(0.00282456 -0.233025 0)
(-0.00126996 0.130092 0)
(-0.00799334 0.153157 0)
(-0.011457 0.147694 0)
(-0.0143153 0.12339 0)
(-0.0127761 0.0945955 0)
(-0.0160914 0.0732386 0)
(-0.0170335 0.056257 0)
(-0.0186038 0.0417216 0)
(-0.0191648 0.0280948 0)
(-0.0198646 0.0154437 0)
(-0.0198236 0.00277964 0)
(-0.0196728 -0.0101417 0)
(-0.0190369 -0.0240702 0)
(-0.0178411 -0.0397113 0)
(-0.0180689 -0.0574537 0)
(-0.0118735 -0.0788824 0)
(-0.0186834 -0.103796 0)
(-0.00186256 -0.134677 0)
(-0.0203187 -0.178799 0)
(0.00656988 -0.245048 0)
(0.00234841 0.131431 0)
(7.96144e-05 0.157124 0)
(-0.000428225 0.150823 0)
(-0.00192227 0.125719 0)
(-0.00100001 0.0974254 0)
(-0.00401692 0.0754826 0)
(-0.00458212 0.0578956 0)
(-0.0058091 0.0428023 0)
(-0.00629943 0.0288172 0)
(-0.00688986 0.0157713 0)
(-0.00708446 0.00287311 0)
(-0.00721705 -0.0103109 0)
(-0.00726329 -0.0243988 0)
(-0.00643125 -0.0401833 0)
(-0.0085017 -0.0584081 0)
(-0.00240384 -0.0792444 0)
(-0.0120514 -0.105337 0)
(0.00488819 -0.133865 0)
(-0.01724 -0.178483 0)
(0.00759664 -0.251501 0)
(0.00551628 0.128283 0)
(0.00695078 0.156823 0)
(0.00958976 0.150471 0)
(0.00930124 0.125628 0)
(0.010085 0.0968606 0)
(0.00766523 0.0754644 0)
(0.00743215 0.0581629 0)
(0.00661947 0.0431164 0)
(0.00625146 0.0291803 0)
(0.00574785 0.0160886 0)
(0.00532878 0.00318236 0)
(0.00491581 -0.0100725 0)
(0.00412385 -0.0242035 0)
(0.00433308 -0.0398746 0)
(0.00094818 -0.0586088 0)
(0.00571929 -0.0787779 0)
(-0.00612668 -0.106989 0)
(0.00956801 -0.134088 0)
(-0.0161256 -0.17757 0)
(0.0106098 -0.25764 0)
(0.00716075 0.119373 0)
(0.0143957 0.152908 0)
(0.0195963 0.149197 0)
(0.0211277 0.127663 0)
(0.0218801 0.0996534 0)
(0.0198891 0.0774326 0)
(0.0197075 0.0593738 0)
(0.0192584 0.0439486 0)
(0.019045 0.0298934 0)
(0.0186546 0.0167247 0)
(0.0180337 0.00386784 0)
(0.0173617 -0.00927237 0)
(0.0158486 -0.0232293 0)
(0.0152292 -0.0385544 0)
(0.011199 -0.0569443 0)
(0.0139437 -0.0764056 0)
(0.00115591 -0.104301 0)
(0.0154508 -0.129381 0)
(-0.0150159 -0.173635 0)
(0.0127195 -0.260129 0)
(0.0107807 0.108325 0)
(0.0210865 0.144834 0)
(0.0291216 0.143399 0)
(0.0323563 0.126773 0)
(0.0339953 0.0979146 0)
(0.0327227 0.0761764 0)
(0.0327176 0.0584643 0)
(0.032648 0.0433429 0)
(0.0326186 0.0297035 0)
(0.0323794 0.016956 0)
(0.0315204 0.00458401 0)
(0.0306301 -0.0080646 0)
(0.0282677 -0.0214748 0)
(0.0269252 -0.0364882 0)
(0.0218934 -0.0540412 0)
(0.0223293 -0.0739635 0)
(0.00892219 -0.100677 0)
(0.0198666 -0.125181 0)
(-0.0139403 -0.168713 0)
(0.0164351 -0.260899 0)
(0.0125333 0.0854414 0)
(0.0281563 0.134366 0)
(0.0398999 0.137043 0)
(0.0443567 0.126809 0)
(0.0474829 0.101254 0)
(0.0469908 0.0776999 0)
(0.0470578 0.0591771 0)
(0.0473367 0.0438444 0)
(0.047492 0.03038 0)
(0.0474677 0.0179573 0)
(0.0463331 0.00604174 0)
(0.0453247 -0.0060845 0)
(0.0421171 -0.0188251 0)
(0.0401419 -0.0331926 0)
(0.0340706 -0.0496246 0)
(0.0325543 -0.0689533 0)
(0.018973 -0.0930224 0)
(0.0259306 -0.115727 0)
(-0.0115327 -0.162185 0)
(0.0200822 -0.258912 0)
(0.0162894 0.0660851 0)
(0.0329387 0.117854 0)
(0.0480125 0.126252 0)
(0.0550866 0.119022 0)
(0.0609119 0.0992699 0)
(0.062805 0.076165 0)
(0.0636784 0.0573631 0)
(0.0643503 0.0422042 0)
(0.0645274 0.02943 0)
(0.0647217 0.0178711 0)
(0.063204 0.00699607 0)
(0.0621857 -0.00415254 0)
(0.0581189 -0.0156961 0)
(0.0555974 -0.0289536 0)
(0.0483072 -0.0439177 0)
(0.0448931 -0.0624504 0)
(0.0307386 -0.084111 0)
(0.0316906 -0.105702 0)
(-0.00900143 -0.15385 0)
(0.0258697 -0.256435 0)
(0.0148218 0.0267558 0)
(0.0372355 0.101685 0)
(0.0538719 0.116074 0)
(0.0647134 0.112709 0)
(0.0734041 0.0978537 0)
(0.0792603 0.0773718 0)
(0.0823508 0.0583869 0)
(0.0844668 0.0426323 0)
(0.0848316 0.0297834 0)
(0.0855477 0.0186771 0)
(0.083446 0.00877273 0)
(0.0825426 -0.0011826 0)
(0.0776105 -0.0113032 0)
(0.0745596 -0.0232768 0)
(0.0659496 -0.036526 0)
(0.0606222 -0.0532943 0)
(0.0451582 -0.0713594 0)
(0.0391737 -0.0903032 0)
(-0.00374114 -0.144161 0)
(0.0324486 -0.252193 0)
(0.00227206 0.0101887 0)
(0.0303839 0.0729665 0)
(0.052149 0.0954445 0)
(0.06839 0.0961264 0)
(0.0831313 0.086719 0)
(0.0943012 0.071505 0)
(0.101707 0.0561423 0)
(0.107151 0.0416924 0)
(0.108848 0.0294459 0)
(0.111025 0.0186422 0)
(0.108914 0.00951594 0)
(0.108279 0.000475793 0)
(0.102252 -0.00806288 0)
(0.0983074 -0.0181005 0)
(0.0878374 -0.0284613 0)
(0.0795383 -0.0419296 0)
(0.0611503 -0.0554539 0)
(0.0465982 -0.0740449 0)
(0.00291327 -0.136124 0)
(0.0421175 -0.247602 0)
(-0.0200128 -0.00236886 0)
(0.0147942 0.0585894 0)
(0.039873 0.0780796 0)
(0.0630453 0.079907 0)
(0.0840544 0.0734775 0)
(0.103153 0.0618451 0)
(0.115584 0.0498239 0)
(0.127223 0.0394443 0)
(0.131488 0.0303314 0)
(0.136996 0.0217308 0)
(0.135557 0.0146071 0)
(0.136055 0.00714569 0)
(0.12928 0.000801584 0)
(0.12481 -0.00696274 0)
(0.111633 -0.0140952 0)
(0.100591 -0.0240543 0)
(0.077725 -0.0339339 0)
(0.0556326 -0.0543025 0)
(0.017907 -0.127287 0)
(0.0550735 -0.234725 0)
(-0.0267343 0.0221839 0)
(-0.0171159 0.0220452 0)
(0.0126322 0.0399675 0)
(0.0445998 0.0439053 0)
(0.0717056 0.0433183 0)
(0.0979463 0.0378714 0)
(0.115693 0.0321935 0)
(0.131747 0.0240757 0)
(0.140777 0.0197088 0)
(0.148218 0.0134504 0)
(0.150692 0.0108531 0)
(0.151065 0.00520788 0)
(0.147161 0.00366192 0)
(0.142085 -0.00186117 0)
(0.129747 -0.0033212 0)
(0.1191 -0.0102194 0)
(0.0945602 -0.0140285 0)
(0.0794433 -0.0402138 0)
(0.0570765 -0.112584 0)
(0.0794879 -0.183319 0)
(0.0351266 0.0316805 0)
(0.0393668 0.0180536 0)
(0.0572791 0.0164476 0)
(0.0907603 0.0182504 0)
(0.11838 0.0200045 0)
(0.1482 0.0190335 0)
(0.172192 0.017591 0)
(0.194926 0.0156517 0)
(0.212393 0.0137623 0)
(0.227653 0.0124775 0)
(0.239017 0.0107791 0)
(0.248471 0.0100638 0)
(0.255211 0.00845866 0)
(0.259931 0.00820301 0)
(0.263384 0.00673466 0)
(0.262688 0.0058794 0)
(0.256787 0.00506709 0)
(0.242424 -0.00237706 0)
(0.202188 -0.0146114 0)
(0.149218 -0.0343435 0)
)
;

boundaryField
{
    movingWall
    {
        type            fixedValue;
        value           uniform (1 0 0);
    }
    fixedWalls
    {
        type            noSlip;
    }
    frontAndBack
    {
        type            empty;
    }
}


// ************************************************************************* //
