/*--------------------------------*- C++ -*----------------------------------*\
| =========                 |                                                 |
| \\      /  F ield         | OpenFOAM: The Open Source CFD Toolbox           |
|  \\    /   O peration     | Version:  5.0                                   |
|   \\  /    A nd           | Web:      www.OpenFOAM.org                      |
|    \\/     M anipulation  |                                                 |
\*---------------------------------------------------------------------------*/
FoamFile
{
    version     2.0;
    format      ascii;
    class       volScalarField;
    location    "0.5";
    object      epsilon;
}
// * * * * * * * * * * * * * * * * * * * * * * * * * * * * * * * * * * * * * //

dimensions      [0 2 -3 0 0 0 0];

internalField   nonuniform List<scalar> 
400
(
0.00270608
0.00296571
0.00316189
0.00326672
0.00331467
0.00333505
0.00334411
0.00334909
0.0033529
0.00335647
0.00336016
0.0033648
0.00336862
0.00336998
0.00336479
0.0033436
0.00328868
0.00317191
0.00296368
0.00270598
0.00296508
0.00222552
0.00218775
0.00220919
0.00222456
0.00223076
0.00223203
0.0022311
0.00222937
0.00222745
0.00222586
0.00222556
0.00222515
0.00222374
0.00221967
0.00221012
0.00219241
0.00217402
0.0022268
0.002965
0.00317447
0.00217452
0.00203768
0.00201897
0.00201967
0.00202154
0.00202199
0.00202138
0.00202034
0.00201927
0.00201842
0.00201797
0.0020175
0.00201661
0.00201481
0.00201239
0.00201349
0.0020394
0.00219168
0.00315939
0.00329435
0.00219397
0.00201335
0.00197361
0.00196556
0.00196442
0.00196417
0.0019637
0.00196306
0.00196246
0.00196206
0.00196191
0.00196185
0.00196178
0.00196193
0.00196421
0.00197605
0.00202363
0.00221649
0.00326076
0.00335466
0.00221282
0.00201372
0.00196401
0.0019513
0.0019484
0.00194769
0.00194729
0.0019469
0.00194662
0.00194654
0.00194671
0.00194707
0.00194769
0.00194921
0.00195429
0.00197148
0.00202849
0.00223666
0.0033036
0.00338351
0.00222398
0.00201782
0.00196416
0.00194936
0.0019456
0.00194467
0.00194432
0.00194409
0.00194402
0.00194418
0.00194463
0.00194535
0.00194648
0.00194889
0.00195555
0.00197542
0.00203642
0.00224971
0.00331706
0.00339839
0.00223024
0.00202179
0.00196674
0.00195125
0.00194718
0.00194616
0.00194583
0.00194572
0.0019458
0.00194619
0.00194693
0.00194805
0.00194978
0.00195306
0.00196101
0.00198264
0.00204567
0.002261
0.00331816
0.00340843
0.00223446
0.00202542
0.00197021
0.00195455
0.00195034
0.00194923
0.0019489
0.00194885
0.0019491
0.00194976
0.0019509
0.00195263
0.00195523
0.00195977
0.00196944
0.00199321
0.00205842
0.00227521
0.00331298
0.00341799
0.00223848
0.00202943
0.00197447
0.00195883
0.00195447
0.00195319
0.00195275
0.00195269
0.00195307
0.00195406
0.00195579
0.00195845
0.00196249
0.00196918
0.00198188
0.0020095
0.0020787
0.00229761
0.00330354
0.00342923
0.00224345
0.00203459
0.00197994
0.00196422
0.00195951
0.00195783
0.00195709
0.00195691
0.00195738
0.00195877
0.00196131
0.00196541
0.00197181
0.00198226
0.00200061
0.00203596
0.00211378
0.0023366
0.00328929
0.00344372
0.00225036
0.00204174
0.00198724
0.00197106
0.00196555
0.00196308
0.00196171
0.00196122
0.00196166
0.00196346
0.00196706
0.00197321
0.00198332
0.00200013
0.00202888
0.00207974
0.00217659
0.00240691
0.00326763
0.00346328
0.00226042
0.00205191
0.001997
0.00197959
0.00197257
0.00196872
0.00196625
0.00196518
0.0019654
0.00196757
0.0019724
0.00198125
0.0019967
0.00202352
0.00207004
0.00215001
0.00228638
0.00253137
0.00323528
0.00349062
0.00227537
0.00206625
0.00200976
0.00198989
0.00198053
0.00197474
0.00197089
0.00196911
0.00196909
0.00197165
0.00197784
0.00198987
0.00201202
0.00205229
0.00212463
0.00225104
0.00245783
0.00274158
0.00321975
0.00353021
0.00229727
0.00208562
0.00202585
0.00200273
0.00199127
0.00198441
0.00198034
0.00197884
0.00197958
0.0019834
0.0019916
0.00200711
0.00203589
0.00208922
0.00218776
0.00236765
0.00267707
0.00306727
0.00327651
0.00358727
0.0023278
0.00211062
0.00204886
0.00202677
0.00201818
0.00201588
0.00201716
0.00202126
0.00202779
0.00203728
0.00205117
0.00207254
0.00210723
0.00216651
0.00227517
0.00249319
0.00296429
0.0035157
0.00352686
0.00366349
0.00236669
0.0021522
0.00210512
0.0021033
0.00211911
0.00214259
0.00216913
0.00219645
0.0022239
0.00225224
0.00228353
0.00232057
0.00236624
0.00242346
0.0025076
0.00270353
0.00328532
0.00418212
0.00395912
0.00376623
0.00243951
0.00227589
0.00230598
0.00239618
0.00250608
0.00261982
0.00272772
0.0028243
0.0029091
0.0029855
0.00305937
0.00313556
0.00321257
0.00327439
0.00330027
0.00334393
0.00378174
0.00477815
0.00436031
0.00385004
0.0026629
0.00274956
0.00308629
0.00347918
0.00387547
0.00424455
0.0045618
0.00481628
0.00501397
0.00517252
0.00531508
0.00545746
0.00559988
0.00569862
0.00567731
0.0055038
0.0053714
0.00518621
0.00465479
0.00389904
0.00340131
0.00452974
0.00582128
0.00699052
0.00803348
0.00890448
0.00955271
0.00997932
0.0102371
0.0103994
0.0105451
0.0107155
0.0109234
0.0110801
0.0110136
0.0104301
0.00868996
0.00601393
0.00485805
0.00361576
0.00403621
0.00474657
0.00542351
0.00601527
0.00647837
0.00678737
0.00694292
0.00698182
0.00697295
0.00692585
0.00687932
0.00687292
0.00688284
0.0069109
0.00689151
0.00680013
0.0065626
0.00604525
0.00490278
)
;

boundaryField
{
    movingWall
    {
        Cmu             0.09;
        kappa           0.41;
        E               9.8;
        type            epsilonWallFunction;
        value           nonuniform List<scalar> 
20
(
0.00361576
0.00403621
0.00474657
0.00542351
0.00601527
0.00647837
0.00678737
0.00694292
0.00698182
0.00697295
0.00692585
0.00687932
0.00687292
0.00688284
0.0069109
0.00689151
0.00680013
0.0065626
0.00604525
0.00490278
)
;
    }
    fixedWalls
    {
        Cmu             0.09;
        kappa           0.41;
        E               9.8;
        type            epsilonWallFunction;
        value           nonuniform List<scalar> 
60
(
0.00270608
0.00296508
0.00317447
0.00329435
0.00335466
0.00338351
0.00339839
0.00340843
0.00341799
0.00342923
0.00344372
0.00346328
0.00349062
0.00353021
0.00358727
0.00366349
0.00376623
0.00385004
0.00389904
0.00361576
0.00270598
0.002965
0.00315939
0.00326076
0.0033036
0.00331706
0.00331816
0.00331298
0.00330354
0.00328929
0.00326763
0.00323528
0.00321975
0.00327651
0.00352686
0.00395912
0.00436031
0.00465479
0.00485805
0.00490278
0.00270608
0.00296571
0.00316189
0.00326672
0.00331467
0.00333505
0.00334411
0.00334909
0.0033529
0.00335647
0.00336016
0.0033648
0.00336862
0.00336998
0.00336479
0.0033436
0.00328868
0.00317191
0.00296368
0.00270598
)
;
    }
    frontAndBack
    {
        type            empty;
    }
}


// ************************************************************************* //
