/*--------------------------------*- C++ -*----------------------------------*\
| =========                 |                                                 |
| \\      /  F ield         | OpenFOAM: The Open Source CFD Toolbox           |
|  \\    /   O peration     | Version:  5.0                                   |
|   \\  /    A nd           | Web:      www.OpenFOAM.org                      |
|    \\/     M anipulation  |                                                 |
\*---------------------------------------------------------------------------*/
FoamFile
{
    version     2.0;
    format      ascii;
    class       volScalarField;
    location    "0.5";
    object      k;
}
// * * * * * * * * * * * * * * * * * * * * * * * * * * * * * * * * * * * * * //

dimensions      [0 2 -2 0 0 0 0];

internalField   nonuniform List<scalar> 
400
(
0.000833454
0.000914599
0.000975989
0.00100888
0.00102398
0.00103043
0.00103331
0.0010349
0.00103612
0.00103726
0.00103844
0.00103991
0.00104113
0.00104155
0.00103989
0.00103317
0.00101584
0.00097916
0.000913952
0.000833425
0.000914398
0.00116283
0.001289
0.00135302
0.00138405
0.00139863
0.00140579
0.00141004
0.00141334
0.0014164
0.00141932
0.00142172
0.00142327
0.00142305
0.00141816
0.00140314
0.0013682
0.00129703
0.00116135
0.000914373
0.000979972
0.00129887
0.00145921
0.00154218
0.00158362
0.00160329
0.0016125
0.00161722
0.00162029
0.00162285
0.00162521
0.00162713
0.00162791
0.00162588
0.00161723
0.00159505
0.0015477
0.00145615
0.00128579
0.000975194
0.00101764
0.00137156
0.00155179
0.00164682
0.00169535
0.00171869
0.00172942
0.00173448
0.00173731
0.00173937
0.00174112
0.00174226
0.00174201
0.00173807
0.00172608
0.00169831
0.00164217
0.00153743
0.00134708
0.00100698
0.00103667
0.00140932
0.00160155
0.00170425
0.0017574
0.00178314
0.00179482
0.00180002
0.00180257
0.00180415
0.00180529
0.00180572
0.00180442
0.00179885
0.00178419
0.00175222
0.00168988
0.00157646
0.00137413
0.00102044
0.00104583
0.00142849
0.00162762
0.00173484
0.00179069
0.00181778
0.00182992
0.00183508
0.00183735
0.00183855
0.00183917
0.00183906
0.00183695
0.00183014
0.00181352
0.00177855
0.00171194
0.00159284
0.00138316
0.00102467
0.00105057
0.00143873
0.00164157
0.00175115
0.00180828
0.00183589
0.00184811
0.00185312
0.00185515
0.00185606
0.00185641
0.00185595
0.00185334
0.00184572
0.00182777
0.00179069
0.00172103
0.0015979
0.00138362
0.001025
0.00105377
0.00144542
0.0016502
0.00176075
0.00181818
0.00184573
0.00185775
0.00186253
0.00186436
0.00186511
0.00186534
0.00186477
0.00186196
0.00185391
0.00183507
0.00179644
0.00172437
0.00159796
0.00137926
0.00102333
0.0010568
0.00145139
0.00165725
0.00176794
0.001825
0.00185205
0.00186361
0.00186807
0.00186972
0.0018704
0.00187065
0.00187016
0.00186741
0.00185924
0.00183987
0.0018
0.00172566
0.00159558
0.00137143
0.00102029
0.00106037
0.00145815
0.00166477
0.00177505
0.00183119
0.00185731
0.00186816
0.00187215
0.00187355
0.00187418
0.00187452
0.00187426
0.00187181
0.00186382
0.00184424
0.00180338
0.00172671
0.00159213
0.00135991
0.00101568
0.00106495
0.00146677
0.00167405
0.00178337
0.00183798
0.00186265
0.0018724
0.00187568
0.0018767
0.0018772
0.00187765
0.00187768
0.00187569
0.00186816
0.00184872
0.00180721
0.0017282
0.00158801
0.00134303
0.00100866
0.00107113
0.00147831
0.00168615
0.00179369
0.00184588
0.00186839
0.00187654
0.00187878
0.00187919
0.0018794
0.0018799
0.00188017
0.00187869
0.00187172
0.00185258
0.00181046
0.00172904
0.00158226
0.00131709
0.000998339
0.00107974
0.00149412
0.00170196
0.00180635
0.00185487
0.00187432
0.00188037
0.00188139
0.00188103
0.0018809
0.00188133
0.00188173
0.00188055
0.0018738
0.00185433
0.00181055
0.00172545
0.00157105
0.00129254
0.000994105
0.00109218
0.00151559
0.0017217
0.00182094
0.00186451
0.00188057
0.00188483
0.00188513
0.00188459
0.00188458
0.00188533
0.00188602
0.00188493
0.00187754
0.00185558
0.00180624
0.00171269
0.00155662
0.00129841
0.00101481
0.00111007
0.00154332
0.00174431
0.00183683
0.00187641
0.00189161
0.00189684
0.00189905
0.00190094
0.0019035
0.00190675
0.00190959
0.00190991
0.00190218
0.00187558
0.0018152
0.00170952
0.00157143
0.00141816
0.00109903
0.00113385
0.00157479
0.0017688
0.0018602
0.00190451
0.00192765
0.00194279
0.00195546
0.00196748
0.00197928
0.00199087
0.00200178
0.00200851
0.00200564
0.00197753
0.00190442
0.00178335
0.0016929
0.00169673
0.00123831
0.00116579
0.00161103
0.00181218
0.00192525
0.00199871
0.00205465
0.00210266
0.00214568
0.00218397
0.00221768
0.00224765
0.00227501
0.00229871
0.00231045
0.00229212
0.00221429
0.00206674
0.00197204
0.00198193
0.00136362
0.00119198
0.00166894
0.00194098
0.00214214
0.00230591
0.00244708
0.00256996
0.00267328
0.00275677
0.00282225
0.00287452
0.00292032
0.00296328
0.00299836
0.00299963
0.00293526
0.00275767
0.00251957
0.00218305
0.00145607
0.00120665
0.00178289
0.00231341
0.00273959
0.00308043
0.00336008
0.00358163
0.00374143
0.00384434
0.00390566
0.00394402
0.00397796
0.00401734
0.00406263
0.00407991
0.00403715
0.00382521
0.00325892
0.00230427
0.00152008
0.00111836
0.00124936
0.00147099
0.00168256
0.00186873
0.00201655
0.00211787
0.00217176
0.00218773
0.00218647
0.00217427
0.00215954
0.0021574
0.00216051
0.00216931
0.00216297
0.00213376
0.00205847
0.00189519
0.00153414
)
;

boundaryField
{
    movingWall
    {
        type            kqRWallFunction;
        value           nonuniform List<scalar> 
20
(
0.00111836
0.00124936
0.00147099
0.00168256
0.00186873
0.00201655
0.00211787
0.00217176
0.00218773
0.00218647
0.00217427
0.00215954
0.0021574
0.00216051
0.00216931
0.00216297
0.00213376
0.00205847
0.00189519
0.00153414
)
;
    }
    fixedWalls
    {
        type            kqRWallFunction;
        value           nonuniform List<scalar> 
60
(
0.000833454
0.000914398
0.000979972
0.00101764
0.00103667
0.00104583
0.00105057
0.00105377
0.0010568
0.00106037
0.00106495
0.00107113
0.00107974
0.00109218
0.00111007
0.00113385
0.00116579
0.00119198
0.00120665
0.00111836
0.000833425
0.000914373
0.000975194
0.00100698
0.00102044
0.00102467
0.001025
0.00102333
0.00102029
0.00101568
0.00100866
0.000998339
0.000994105
0.00101481
0.00109903
0.00123831
0.00136362
0.00145607
0.00152008
0.00153414
0.000833454
0.000914599
0.000975989
0.00100888
0.00102398
0.00103043
0.00103331
0.0010349
0.00103612
0.00103726
0.00103844
0.00103991
0.00104113
0.00104155
0.00103989
0.00103317
0.00101584
0.00097916
0.000913952
0.000833425
)
;
    }
    frontAndBack
    {
        type            empty;
    }
}


// ************************************************************************* //
