/*--------------------------------*- C++ -*----------------------------------*\
| =========                 |                                                 |
| \\      /  F ield         | OpenFOAM: The Open Source CFD Toolbox           |
|  \\    /   O peration     | Version:  5.0                                   |
|   \\  /    A nd           | Web:      www.OpenFOAM.org                      |
|    \\/     M anipulation  |                                                 |
\*---------------------------------------------------------------------------*/
FoamFile
{
    version     2.0;
    format      ascii;
    class       volScalarField;
    location    "0.5";
    object      nut;
}
// * * * * * * * * * * * * * * * * * * * * * * * * * * * * * * * * * * * * * //

dimensions      [0 2 -1 0 0 0 0];

internalField   nonuniform List<scalar> 
400
(
2.31028e-05
2.53849e-05
2.71135e-05
2.8042e-05
2.84699e-05
2.86536e-05
2.8736e-05
2.87816e-05
2.88166e-05
2.88494e-05
2.88831e-05
2.89253e-05
2.89599e-05
2.89719e-05
2.89242e-05
2.87324e-05
2.82406e-05
2.72038e-05
2.53664e-05
2.31021e-05
2.53791e-05
5.46816e-05
6.83519e-05
7.45788e-05
7.75005e-05
7.89216e-05
7.96868e-05
8.02018e-05
8.06401e-05
8.10597e-05
8.14524e-05
8.17397e-05
8.19331e-05
8.196e-05
8.15466e-05
8.01726e-05
7.6846e-05
6.96437e-05
5.45116e-05
2.53785e-05
2.72269e-05
6.98251e-05
9.40461e-05
0.000106019
0.000111755
0.000114441
0.000115735
0.000116448
0.000116951
0.000117383
0.000117774
0.00011808
0.00011822
0.000117977
0.000116829
0.000113784
0.00010707
9.3573e-05
6.78897e-05
2.70908e-05
2.82916e-05
7.71682e-05
0.000107644
0.000123673
0.000131606
0.000135333
0.000137045
0.000137882
0.000138376
0.000138748
0.000139056
0.000139249
0.000139211
0.000138588
0.000136673
0.000132157
0.000122824
0.000105124
7.36826e-05
2.79873e-05
2.88322e-05
8.07819e-05
0.000114636
0.000133095
0.000142449
0.000146871
0.000148855
0.00014975
0.000150204
0.00015049
0.000150685
0.000150745
0.0001505
0.000149525
0.000146984
0.000141395
0.000130365
0.000110265
7.59799e-05
2.83682e-05
2.90934e-05
8.25783e-05
0.000118159
0.000137907
0.000148045
0.000152852
0.000154975
0.000155878
0.000156283
0.000156491
0.000156586
0.000156531
0.000156114
0.000154867
0.000151879
0.000145582
0.000133525
0.000112129
7.65349e-05
2.84877e-05
2.92293e-05
8.35314e-05
0.000119958
0.000140327
0.00015082
0.000155786
0.00015795
0.000158834
0.000159192
0.000159341
0.000159368
0.000159229
0.000158692
0.00015725
0.000153946
0.000147164
0.000134454
0.000112332
7.62041e-05
2.84968e-05
2.9321e-05
8.41509e-05
0.000121005
0.00014162
0.000152219
0.000157206
0.00015935
0.000160198
0.000160517
0.000160626
0.000160612
0.000160419
0.000159796
0.000158206
0.000154648
0.000147478
0.000134261
0.000111645
7.52509e-05
2.84483e-05
2.94077e-05
8.46948e-05
0.000121799
0.000142471
0.000153028
0.000157949
0.000160033
0.000160836
0.000161124
0.00016121
0.000161172
0.000160944
0.000160255
0.000158528
0.000154714
0.000147132
0.000133372
0.000110228
7.36739e-05
2.836e-05
2.95092e-05
8.5297e-05
0.000122595
0.000143223
0.000153645
0.00015844
0.000160433
0.00016118
0.000161437
0.000161506
0.000161451
0.000161196
0.00016044
0.000158556
0.000154425
0.000146303
0.000131798
0.000107929
7.1232e-05
2.82262e-05
2.96396e-05
8.6043e-05
0.000123532
0.000144038
0.00015425
0.000158863
0.000160733
0.000161409
0.000161624
0.000161673
0.000161603
0.000161313
0.00016047
0.000158372
0.00015379
0.000144879
0.000129247
0.000104273
6.74452e-05
2.8022e-05
2.98151e-05
8.7013e-05
0.000124703
0.000144997
0.000154909
0.000159274
0.00016098
0.000161568
0.000161727
0.000161745
0.000161653
0.000161303
0.000160329
0.00015791
0.000152647
0.000142509
0.000125144
9.85488e-05
6.16764e-05
2.7726e-05
3.00592e-05
8.83005e-05
0.000126171
0.000146117
0.000155611
0.000159643
0.000161146
0.000161636
0.000161721
0.000161699
0.000161563
0.000161126
0.000159952
0.000157057
0.000150791
0.000138861
0.000119032
9.03801e-05
5.48438e-05
2.76239e-05
3.04112e-05
8.99902e-05
0.000127915
0.000147308
0.000156225
0.000159842
0.000161122
0.000161505
0.000161534
0.000161473
0.00016129
0.000160742
0.000159317
0.000155835
0.000148327
0.000134213
0.000111502
8.14607e-05
4.94666e-05
2.82876e-05
3.09156e-05
9.20895e-05
0.000129741
0.000148207
0.000156348
0.000159568
0.000160636
0.000160908
0.000160901
0.000160814
0.000160613
0.000160001
0.000158404
0.000154538
0.000146134
0.000130341
0.000105496
7.49747e-05
5.14849e-05
3.08227e-05
3.15832e-05
9.43075e-05
0.000130832
0.00014794
0.000155205
0.000157814
0.000158545
0.000158655
0.000158614
0.000158541
0.000158386
0.000157932
0.000156457
0.000152999
0.00014523
0.00013017
0.000105873
7.85107e-05
6.19544e-05
3.48578e-05
3.2477e-05
9.57523e-05
0.000129865
0.000144665
0.000150046
0.000151609
0.000151884
0.000151905
0.000151993
0.000152153
0.000152294
0.000152257
0.000151669
0.000149549
0.000144406
0.000133709
0.000114962
9.25509e-05
7.39879e-05
3.83807e-05
3.32137e-05
9.41387e-05
0.000123316
0.000133814
0.000137547
0.000139064
0.000140043
0.000140993
0.000142014
0.000142972
0.000143771
0.000144409
0.000144809
0.000144488
0.000142105
0.000136582
0.000124356
0.000106368
8.27031e-05
4.09929e-05
3.36085e-05
8.41091e-05
0.000106334
0.000116037
0.000122167
0.000126485
0.000129657
0.000131883
0.000133286
0.000134108
0.000134621
0.000135056
0.000135552
0.000135988
0.000135207
0.000133187
0.00012626
0.000109995
7.94608e-05
4.28067e-05
3.11322e-05
3.48049e-05
4.10279e-05
4.69789e-05
5.22491e-05
5.64928e-05
5.94758e-05
6.114e-05
6.16968e-05
6.17038e-05
6.14321e-05
6.10127e-05
6.09482e-05
6.1036e-05
6.12846e-05
6.10983e-05
6.02585e-05
5.81107e-05
5.34727e-05
4.32047e-05
)
;

boundaryField
{
    movingWall
    {
        type            nutkWallFunction;
        Cmu             0.09;
        kappa           0.41;
        E               9.8;
        value           uniform 0;
    }
    fixedWalls
    {
        type            nutkWallFunction;
        Cmu             0.09;
        kappa           0.41;
        E               9.8;
        value           uniform 0;
    }
    frontAndBack
    {
        type            empty;
    }
}


// ************************************************************************* //
