/*--------------------------------*- C++ -*----------------------------------*\
| =========                 |                                                 |
| \\      /  F ield         | OpenFOAM: The Open Source CFD Toolbox           |
|  \\    /   O peration     | Version:  5.0                                   |
|   \\  /    A nd           | Web:      www.OpenFOAM.org                      |
|    \\/     M anipulation  |                                                 |
\*---------------------------------------------------------------------------*/
FoamFile
{
    version     2.0;
    format      ascii;
    class       volScalarField;
    location    "0.5";
    object      p;
}
// * * * * * * * * * * * * * * * * * * * * * * * * * * * * * * * * * * * * * //

dimensions      [0 2 -2 0 0 0 0];

internalField   nonuniform List<scalar> 
400
(
9.05933e-09
-7.71728e-06
-5.41563e-06
5.72288e-06
2.631e-05
5.62318e-05
9.49041e-05
0.000141543
0.000195191
0.000254703
0.000318769
0.000385745
0.000453256
0.000518826
0.000579458
0.00063185
0.000672735
0.000699624
0.000711633
0.000707007
7.15632e-06
-1.07142e-06
2.50004e-06
1.50098e-05
3.5795e-05
6.47906e-05
0.000101763
0.00014621
0.000197393
0.000254354
0.000315899
0.000380219
0.000445405
0.000509048
0.000568398
0.000620519
0.00066258
0.000692078
0.000706417
0.000701756
3.56326e-06
-7.78929e-06
-5.08358e-06
8.0893e-06
2.96093e-05
5.89388e-05
9.59015e-05
0.000140177
0.000191216
0.000248212
0.000310047
0.000375136
0.000441601
0.00050714
0.00056909
0.000624546
0.000670494
0.000703511
0.000718927
0.00071171
-1.00941e-05
-2.56425e-05
-2.54079e-05
-1.27347e-05
9.36842e-06
3.96876e-05
7.78392e-05
0.000123543
0.000176381
0.000235694
0.000300488
0.000369351
0.000440451
0.000511493
0.000579694
0.000641792
0.000693953
0.000731214
0.000747162
0.000736433
-3.47862e-05
-5.43371e-05
-5.69294e-05
-4.5408e-05
-2.30298e-05
8.49659e-06
4.85291e-05
9.67513e-05
0.000152837
0.000216262
0.000286182
0.000361324
0.000439923
0.00051963
0.000597398
0.00066933
0.000730405
0.000773867
0.000791681
0.000778039
-7.08697e-05
-9.42502e-05
-9.96253e-05
-8.94584e-05
-6.69773e-05
-3.41749e-05
8.11587e-06
5.95504e-05
0.000119892
0.000188774
0.000265527
0.00034905
0.000437694
0.000529073
0.00061984
0.000705348
0.000779151
0.000832335
0.000854668
0.000838993
-0.00011844
-0.00014586
-0.000154084
-0.000145374
-0.000122907
-8.88517e-05
-4.41481e-05
1.08789e-05
7.61202e-05
0.000151406
0.000236307
0.000329975
0.00043099
0.000537055
0.000644635
0.000748371
0.000840227
0.000908509
0.00093947
0.00092284
-0.000177728
-0.000209775
-0.000221166
-0.000214119
-0.000191862
-0.000156715
-0.000109668
-5.09685e-05
1.94543e-05
0.000101687
0.000195624
0.000300796
0.000416212
0.000539921
0.000668522
0.00079622
0.000913401
0.00100479
0.001051
0.00103518
-0.000249265
-0.000286884
-0.00030204
-0.000297051
-0.000275352
-0.000239461
-0.000190386
-0.000128247
-5.27454e-05
3.65171e-05
0.000139843
0.000257288
0.000388588
0.000532544
0.000686501
0.000844944
0.000997157
0.00112362
0.00119632
0.0011847
-0.000333937
-0.000378457
-0.000398265
-0.000395928
-0.000375305
-0.000339217
-0.000288684
-0.000223659
-0.000143589
-4.77454e-05
6.46232e-05
0.000194217
0.000341877
0.000507686
0.000690731
0.000887193
0.00108676
0.00126603
0.00138518
0.00138375
-0.00043309
-0.000486273
-0.000511885
-0.000512932
-0.000494031
-0.000458465
-0.00040727
-0.000340201
-0.000256464
-0.000155064
-3.48337e-05
0.000105732
0.000268324
0.000455456
0.000669189
0.000909685
0.00117022
0.00142717
0.00163043
0.00164628
-0.000548779
-0.000612854
-0.000645583
-0.000650711
-0.000634176
-0.000599943
-0.000549043
-0.000480953
-0.000394718
-0.000289283
-0.000163344
-1.49251e-05
0.000159024
0.000363343
0.000604608
0.000889986
0.00122117
0.00158463
0.00193867
0.0019819
-0.000684421
-0.000761887
-0.00080289
-0.000812409
-0.000798664
-0.000766539
-0.000716952
-0.000648792
-0.00056112
-0.000453244
-0.000324306
-0.000172501
5.94189e-06
0.000217975
0.000475124
0.000794085
0.00119062
0.00167754
0.00224757
0.0023719
-0.000845877
-0.000938783
-0.000988378
-0.00100165
-0.000990552
-0.000960987
-0.000913478
-0.000845599
-0.000756797
-0.000647376
-0.00051789
-0.000368004
-0.000194774
9.23534e-06
0.000257131
0.000569452
0.0009802
0.00155069
0.00231774
0.00266704
-0.00104567
-0.00115169
-0.00120739
-0.00122137
-0.00121132
-0.0011836
-0.00113694
-0.00106883
-0.000978345
-0.000866962
-0.000738081
-0.000594855
-0.00043791
-0.000263559
-6.08477e-05
0.000178365
0.000487501
0.000957597
0.00164454
0.00246039
-0.00129942
-0.00140525
-0.00145689
-0.00146199
-0.00145002
-0.00142471
-0.00138151
-0.0013149
-0.00122201
-0.00110638
-0.000976069
-0.000840328
-0.000706674
-0.000580133
-0.000462942
-0.000340612
-0.000243859
-3.64777e-05
0.000165146
0.00171498
-0.00165231
-0.00170499
-0.00170932
-0.00168567
-0.00167953
-0.00167411
-0.0016454
-0.00158097
-0.00147955
-0.00134995
-0.00120891
-0.00107532
-0.000963981
-0.000887538
-0.000864002
-0.000910117
-0.000946732
-0.000723112
-0.00133298
0.00164713
-0.00208677
-0.00199709
-0.0018896
-0.00185854
-0.00188676
-0.00191594
-0.00190507
-0.00183811
-0.00171781
-0.00155994
-0.00139486
-0.00125558
-0.00116065
-0.00112041
-0.00114757
-0.00122097
-0.00126677
-0.000730382
-0.00151083
0.00501578
-0.00363831
-0.00290203
-0.00252529
-0.0023754
-0.0023378
-0.00231046
-0.00223126
-0.00208484
-0.00189186
-0.0016784
-0.00147827
-0.00132814
-0.00124665
-0.00123353
-0.00128944
-0.00133447
-0.00123239
-0.00042804
0.000815469
0.0119406
0.000816916
0.00181609
0.000850379
0.000131518
-0.000346138
-0.00075339
-0.00111734
-0.00138361
-0.0015114
-0.00151483
-0.00143964
-0.00133616
-0.00125928
-0.00124517
-0.00129339
-0.00134972
-0.00113175
0.000180516
0.00397074
0.0155367
)
;

boundaryField
{
    movingWall
    {
        type            zeroGradient;
    }
    fixedWalls
    {
        type            zeroGradient;
    }
    frontAndBack
    {
        type            empty;
    }
}


// ************************************************************************* //
