/*--------------------------------*- C++ -*----------------------------------*\
| =========                 |                                                 |
| \\      /  F ield         | OpenFOAM: The Open Source CFD Toolbox           |
|  \\    /   O peration     | Version:  5.0                                   |
|   \\  /    A nd           | Web:      www.OpenFOAM.org                      |
|    \\/     M anipulation  |                                                 |
\*---------------------------------------------------------------------------*/
FoamFile
{
    version     2.0;
    format      ascii;
    class       surfaceScalarField;
    location    "0.5";
    object      phi;
}
// * * * * * * * * * * * * * * * * * * * * * * * * * * * * * * * * * * * * * //

dimensions      [0 3 -1 0 0 0 0];

internalField   nonuniform List<scalar> 
760
(
-2.33274e-08
2.33265e-08
-6.08886e-08
3.75612e-08
-1.04151e-07
4.32619e-08
-1.47034e-07
4.28838e-08
-1.86478e-07
3.94439e-08
-2.21022e-07
3.45432e-08
-2.49863e-07
2.88415e-08
-2.72427e-07
2.25639e-08
-2.88171e-07
1.57442e-08
-2.96587e-07
8.41608e-09
-2.97283e-07
6.96064e-10
-2.89696e-07
-7.58728e-09
-2.73484e-07
-1.62119e-08
-2.48446e-07
-2.5038e-08
-2.14695e-07
-3.37516e-08
-1.72938e-07
-4.17569e-08
-1.24998e-07
-4.79394e-08
-7.47992e-08
-5.01993e-08
-2.97571e-08
-4.50422e-08
-2.97571e-08
-3.75872e-08
6.09137e-08
-8.09777e-08
8.09516e-08
-1.26047e-07
8.83312e-08
-1.70401e-07
8.72379e-08
-2.11905e-07
8.09481e-08
-2.48892e-07
7.153e-08
-2.80143e-07
6.00925e-08
-3.04745e-07
4.71659e-08
-3.21978e-07
3.29773e-08
-3.31222e-07
1.76595e-08
-3.31908e-07
1.38237e-09
-3.23603e-07
-1.5893e-08
-3.06036e-07
-3.37787e-08
-2.79204e-07
-5.18701e-08
-2.43543e-07
-6.94125e-08
-2.00134e-07
-8.51653e-08
-1.50892e-07
-9.71814e-08
-9.85616e-08
-1.0253e-07
-4.64115e-08
-9.71924e-08
-7.61686e-08
-4.54232e-08
1.06337e-07
-9.26846e-08
1.28213e-07
-1.39106e-07
1.34752e-07
-1.84037e-07
1.32169e-07
-2.26177e-07
1.23088e-07
-2.64059e-07
1.09413e-07
-2.96388e-07
9.24212e-08
-3.22109e-07
7.28866e-08
-3.40376e-07
5.12443e-08
-3.50481e-07
2.77647e-08
-3.51797e-07
2.69865e-09
-3.43892e-07
-2.37987e-08
-3.26474e-07
-5.11967e-08
-2.99566e-07
-7.87775e-08
-2.63634e-07
-1.05344e-07
-2.19703e-07
-1.29097e-07
-1.69344e-07
-1.4754e-07
-1.14368e-07
-1.57506e-07
-5.63766e-08
-1.55184e-07
-1.32545e-07
-4.94248e-08
1.55762e-07
-1.00566e-07
1.79355e-07
-1.50032e-07
1.84218e-07
-1.97223e-07
1.7936e-07
-2.41225e-07
1.6709e-07
-2.80836e-07
1.49023e-07
-3.14853e-07
1.26438e-07
-3.42221e-07
1.00255e-07
-3.62051e-07
7.10741e-08
-3.73578e-07
3.92915e-08
-3.7613e-07
5.25048e-09
-3.69159e-07
-3.07694e-08
-3.52268e-07
-6.80881e-08
-3.25314e-07
-1.05731e-07
-2.88535e-07
-1.42124e-07
-2.42631e-07
-1.75001e-07
-1.8875e-07
-2.01421e-07
-1.28342e-07
-2.17913e-07
-6.33396e-08
-2.20187e-07
-1.95885e-07
-5.24724e-08
2.08234e-07
-1.07845e-07
2.34727e-07
-1.61591e-07
2.37964e-07
-2.12586e-07
2.30355e-07
-2.59891e-07
2.14395e-07
-3.02431e-07
1.91564e-07
-3.39123e-07
1.6313e-07
-3.68976e-07
1.30108e-07
-3.91123e-07
9.32205e-08
-4.04777e-07
5.29452e-08
-4.09192e-07
9.66581e-09
-4.03683e-07
-3.62783e-08
-3.87619e-07
-8.41526e-08
-3.60532e-07
-1.32817e-07
-3.22238e-07
-1.80418e-07
-2.7296e-07
-2.24279e-07
-2.13458e-07
-2.60923e-07
-1.45223e-07
-2.86148e-07
-7.11978e-08
-2.94213e-07
-2.67083e-07
-5.60949e-08
2.64329e-07
-1.16465e-07
2.95098e-07
-1.75558e-07
2.97057e-07
-2.31636e-07
2.86433e-07
-2.83531e-07
2.6629e-07
-3.30168e-07
2.38201e-07
-3.7055e-07
2.03511e-07
-4.03786e-07
1.63345e-07
-4.29076e-07
1.1851e-07
-4.45649e-07
6.95184e-08
-4.527e-07
1.67161e-08
-4.49362e-07
-3.96159e-08
-4.34691e-07
-9.88234e-08
-4.0775e-07
-1.59759e-07
-3.67738e-07
-2.2043e-07
-3.14208e-07
-2.77808e-07
-2.47402e-07
-3.27729e-07
-1.68837e-07
-3.64714e-07
-8.25468e-08
-3.80502e-07
-3.49629e-07
-6.09696e-08
3.25299e-07
-1.27499e-07
3.61627e-07
-1.93087e-07
3.62645e-07
-2.55421e-07
3.48767e-07
-3.13039e-07
3.23907e-07
-3.64804e-07
2.89966e-07
-4.09795e-07
2.48503e-07
-4.47256e-07
2.00806e-07
-4.76515e-07
1.47769e-07
-4.96875e-07
8.98788e-08
-5.07507e-07
2.73477e-08
-5.07373e-07
-3.975e-08
-4.95155e-07
-1.11042e-07
-4.69309e-07
-1.85604e-07
-4.28183e-07
-2.61557e-07
-3.703e-07
-3.35691e-07
-2.94922e-07
-4.03108e-07
-2.031e-07
-4.56535e-07
-9.96945e-08
-4.83908e-07
-4.49324e-07
-6.7428e-08
3.92727e-07
-1.41601e-07
4.358e-07
-2.15002e-07
4.36045e-07
-2.8476e-07
4.18526e-07
-3.49116e-07
3.88263e-07
-4.06871e-07
3.47721e-07
-4.57221e-07
2.98852e-07
-4.99613e-07
2.43198e-07
-5.33595e-07
1.81752e-07
-5.58646e-07
1.1493e-07
-5.74e-07
4.27023e-08
-5.78516e-07
-3.52349e-08
-5.70497e-07
-1.1906e-07
-5.47688e-07
-2.08413e-07
-5.07288e-07
-3.01957e-07
-4.46216e-07
-3.96763e-07
-3.61819e-07
-4.87505e-07
-2.53453e-07
-5.64901e-07
-1.25854e-07
-6.11508e-07
-5.75177e-07
-7.57354e-08
4.68462e-07
-1.59356e-07
5.1942e-07
-2.42095e-07
5.18785e-07
-3.20481e-07
4.96912e-07
-3.92472e-07
4.60254e-07
-4.56869e-07
4.12118e-07
-5.13074e-07
3.55057e-07
-5.60866e-07
2.9099e-07
-6.00156e-07
2.21042e-07
-6.30754e-07
1.45528e-07
-6.52127e-07
6.40756e-08
-6.6319e-07
-2.41721e-08
-6.61978e-07
-1.20272e-07
-6.45515e-07
-2.24876e-07
-6.09573e-07
-3.37899e-07
-5.48689e-07
-4.57647e-07
-4.56712e-07
-5.79482e-07
-3.28729e-07
-6.92884e-07
-1.666e-07
-7.73636e-07
-7.41777e-07
-8.62796e-08
5.54742e-07
-1.81552e-07
6.14693e-07
-2.75397e-07
6.12629e-07
-3.63632e-07
5.85148e-07
-4.43975e-07
5.40597e-07
-5.15346e-07
4.83489e-07
-5.77522e-07
4.17234e-07
-6.30795e-07
3.44262e-07
-6.75641e-07
2.65887e-07
-7.12428e-07
1.82315e-07
-7.41118e-07
9.27663e-08
-7.61007e-07
-4.28366e-09
-7.70139e-07
-1.11139e-07
-7.65073e-07
-2.29943e-07
-7.40084e-07
-3.62888e-07
-6.86527e-07
-5.11203e-07
-5.92468e-07
-6.73541e-07
-4.43794e-07
-8.41558e-07
-2.32117e-07
-9.85313e-07
-9.73895e-07
-9.97531e-08
6.54495e-07
-2.09448e-07
7.24388e-07
-3.16408e-07
7.19589e-07
-4.15619e-07
6.84358e-07
-5.0467e-07
6.29647e-07
-5.82822e-07
5.61641e-07
-6.50477e-07
4.84889e-07
-7.08679e-07
4.02464e-07
-7.58719e-07
3.15927e-07
-8.01819e-07
2.25415e-07
-8.38797e-07
1.29744e-07
-8.69812e-07
2.67317e-08
-8.93544e-07
-8.74072e-08
-9.06775e-07
-2.16712e-07
-9.0279e-07
-3.66874e-07
-8.69454e-07
-5.44539e-07
-7.86472e-07
-7.56523e-07
-6.22524e-07
-1.00551e-06
-3.40523e-07
-1.26731e-06
-1.31442e-06
-1.17398e-07
7.71892e-07
-2.45039e-07
8.52029e-07
-3.67227e-07
8.41778e-07
-4.78116e-07
7.95247e-07
-5.75483e-07
7.27015e-07
-6.59306e-07
6.45465e-07
-7.30963e-07
5.56546e-07
-7.92524e-07
4.64024e-07
-8.46356e-07
3.69759e-07
-8.9485e-07
2.73909e-07
-9.40161e-07
1.75055e-07
-9.83741e-07
7.03116e-08
-1.0262e-06
-4.49453e-08
-1.06568e-06
-1.77233e-07
-1.09609e-06
-3.36462e-07
-1.10288e-06
-5.37755e-07
-1.05562e-06
-8.03783e-07
-8.94007e-07
-1.16712e-06
-5.25562e-07
-1.63576e-06
-1.83998e-06
-1.4137e-07
9.13263e-07
-2.91237e-07
1.0019e-06
-4.30258e-07
9.80799e-07
-5.52268e-07
9.17258e-07
-6.56002e-07
8.30748e-07
-7.42748e-07
7.32211e-07
-8.15332e-07
6.29131e-07
-8.77071e-07
5.25763e-07
-9.31597e-07
4.24284e-07
-9.82721e-07
3.25034e-07
-1.03427e-06
2.26599e-07
-1.08987e-06
1.2592e-07
-1.15277e-06
1.79498e-08
-1.22462e-06
-1.05382e-07
-1.30291e-06
-2.58176e-07
-1.37453e-06
-4.66135e-07
-1.40109e-06
-7.77221e-07
-1.28339e-06
-1.28481e-06
-8.30856e-07
-2.0883e-06
-2.67083e-06
-1.75035e-07
1.0883e-06
-3.5129e-07
1.17815e-06
-5.06477e-07
1.13599e-06
-6.35873e-07
1.04665e-06
-7.40863e-07
9.35738e-07
-8.24858e-07
8.16206e-07
-8.9268e-07
6.96953e-07
-9.4892e-07
5.82003e-07
-9.98509e-07
4.73873e-07
-1.04668e-06
3.73202e-07
-1.09896e-06
2.78878e-07
-1.16135e-06
1.88309e-07
-1.24025e-06
9.68532e-08
-1.34211e-06
-3.52586e-09
-1.47058e-06
-1.29706e-07
-1.61881e-06
-3.17904e-07
-1.74244e-06
-6.53584e-07
-1.71263e-06
-1.31462e-06
-1.21253e-06
-2.58839e-06
-3.88337e-06
-2.23914e-07
1.31221e-06
-4.26764e-07
1.381e-06
-5.90149e-07
1.29937e-06
-7.15489e-07
1.17199e-06
-8.10249e-07
1.0305e-06
-8.80861e-07
8.86817e-07
-9.33642e-07
7.49735e-07
-9.7504e-07
6.23401e-07
-1.0109e-06
5.09735e-07
-1.04707e-06
4.09372e-07
-1.09009e-06
3.21892e-07
-1.14722e-06
2.45447e-07
-1.22695e-06
1.76576e-07
-1.33826e-06
1.07785e-07
-1.48654e-06
1.85818e-08
-1.66758e-06
-1.36873e-07
-1.83972e-06
-4.81439e-07
-1.8741e-06
-1.28024e-06
-1.43222e-06
-3.03027e-06
-5.31559e-06
-2.90459e-07
1.60267e-06
-5.06589e-07
1.59713e-06
-6.52997e-07
1.44578e-06
-7.45422e-07
1.26442e-06
-8.06003e-07
1.09108e-06
-8.48365e-07
9.29179e-07
-8.76564e-07
7.77934e-07
-8.94027e-07
6.40863e-07
-9.05346e-07
5.21054e-07
-9.16469e-07
4.20496e-07
-9.34447e-07
3.39871e-07
-9.66826e-07
2.77826e-07
-1.02135e-06
2.31097e-07
-1.10595e-06
1.92388e-07
-1.2281e-06
1.40727e-07
-1.37127e-06
6.30449e-09
-1.50853e-06
-3.44179e-07
-1.47634e-06
-1.31244e-06
-1.21183e-06
-3.29478e-06
-6.52742e-06
-3.98016e-07
2.00069e-06
-5.58809e-07
1.75792e-06
-6.11372e-07
1.49834e-06
-6.31454e-07
1.2845e-06
-6.35313e-07
1.09494e-06
-6.25452e-07
9.19318e-07
-6.04293e-07
7.56775e-07
-5.74378e-07
6.10948e-07
-5.40067e-07
4.86743e-07
-5.07056e-07
3.87484e-07
-4.82028e-07
3.14843e-07
-4.70665e-07
2.66463e-07
-4.7675e-07
2.37182e-07
-5.02271e-07
2.17909e-07
-5.47043e-07
1.85499e-07
-6.11979e-07
7.12406e-08
-6.86634e-07
-2.69524e-07
-7.0412e-07
-1.29496e-06
-7.79556e-07
-3.21934e-06
-7.30698e-06
-3.83684e-07
2.38437e-06
-3.81243e-07
1.75548e-06
-2.80278e-07
1.39738e-06
-1.65651e-07
1.16987e-06
-5.08271e-08
9.80114e-07
6.25494e-08
8.05941e-07
1.73776e-07
6.45548e-07
2.81037e-07
5.03687e-07
3.8242e-07
3.85361e-07
4.75498e-07
2.94407e-07
5.55378e-07
2.34962e-07
6.19304e-07
2.02538e-07
6.68121e-07
1.88365e-07
7.03619e-07
1.82411e-07
7.20965e-07
1.68153e-07
7.14959e-07
7.72471e-08
6.41987e-07
-1.96552e-07
2.76778e-07
-9.29747e-07
7.84389e-08
-3.021e-06
-7.22854e-06
-1.32813e-07
2.51718e-06
2.33029e-07
1.38964e-06
6.91894e-07
9.38511e-07
1.10645e-06
7.55323e-07
1.46017e-06
6.26391e-07
1.76203e-06
5.0408e-07
2.0203e-06
3.87277e-07
2.23855e-06
2.85437e-07
2.41984e-06
2.04075e-07
2.57011e-06
1.44135e-07
2.69478e-06
1.10292e-07
2.79873e-06
9.85819e-08
2.88781e-06
9.929e-08
2.96727e-06
1.02953e-07
3.02501e-06
1.10409e-07
3.04549e-06
5.67691e-08
2.93006e-06
-8.11241e-08
2.57385e-06
-5.73536e-07
1.53032e-06
-1.97747e-06
-5.69822e-06
2.51718e-06
3.90683e-06
4.84534e-06
5.60066e-06
6.22705e-06
6.73113e-06
7.11841e-06
7.40384e-06
7.60792e-06
7.75205e-06
7.86235e-06
7.96093e-06
8.06022e-06
8.16317e-06
8.27358e-06
8.33035e-06
8.24922e-06
7.67569e-06
5.69822e-06
)
;

boundaryField
{
    movingWall
    {
        type            calculated;
        value           uniform 0;
    }
    fixedWalls
    {
        type            calculated;
        value           uniform 0;
    }
    frontAndBack
    {
        type            empty;
        value           nonuniform 0();
    }
}


// ************************************************************************* //
