/*--------------------------------*- C++ -*----------------------------------*\
| =========                 |                                                 |
| \\      /  F ield         | OpenFOAM: The Open Source CFD Toolbox           |
|  \\    /   O peration     | Version:  5.0                                   |
|   \\  /    A nd           | Web:      www.OpenFOAM.org                      |
|    \\/     M anipulation  |                                                 |
\*---------------------------------------------------------------------------*/
FoamFile
{
    version     2.0;
    format      ascii;
    class       volVectorField;
    location    "0.5";
    object      U;
}
// * * * * * * * * * * * * * * * * * * * * * * * * * * * * * * * * * * * * * //

dimensions      [0 1 -1 0 0 0 0];

internalField   nonuniform List<vector> 
400
(
(-0.000241189 0.000243378 0)
(-0.000771625 0.000447358 0)
(-0.00164408 0.00053352 0)
(-0.00252275 0.000529432 0)
(-0.00335231 0.000483143 0)
(-0.00409578 0.000419837 0)
(-0.00473203 0.000348417 0)
(-0.00524766 0.0002711 0)
(-0.0056333 0.000187486 0)
(-0.00587563 9.81392e-05 0)
(-0.00596664 7.02984e-06 0)
(-0.00589942 -9.46649e-05 0)
(-0.00566092 -0.000199336 0)
(-0.00524756 -0.000306901 0)
(-0.00465747 -0.000414173 0)
(-0.00389825 -0.000514223 0)
(-0.00299395 -0.000592146 0)
(-0.00199367 -0.000615861 0)
(-0.000973121 -0.000530916 0)
(-0.000313199 -0.00030951 0)
(-0.000445791 0.000769646 0)
(-0.00115252 0.00114948 0)
(-0.00206246 0.0013016 0)
(-0.002973 0.0012937 0)
(-0.00384109 0.00119718 0)
(-0.00463213 0.00105348 0)
(-0.00531895 0.000882238 0)
(-0.00588077 0.000691327 0)
(-0.00630181 0.000483134 0)
(-0.00656848 0.000258944 0)
(-0.00666933 2.019e-05 0)
(-0.00659417 -0.000232312 0)
(-0.00633537 -0.000495671 0)
(-0.00588987 -0.000763823 0)
(-0.0052613 -0.00102618 0)
(-0.00446413 -0.00126373 0)
(-0.00352655 -0.0014434 0)
(-0.00249212 -0.00150961 0)
(-0.00141983 -0.00137884 0)
(-0.000548072 -0.000974745 0)
(-0.000560139 0.00165246 0)
(-0.00136947 0.00206876 0)
(-0.00231315 0.00221167 0)
(-0.00323887 0.00217935 0)
(-0.00411909 0.00202835 0)
(-0.00492624 0.00179883 0)
(-0.00563374 0.00151556 0)
(-0.00621835 0.00119209 0)
(-0.00666144 0.000835256 0)
(-0.00694765 0.000449078 0)
(-0.0070638 3.68721e-05 0)
(-0.00699911 -0.000397694 0)
(-0.00674594 -0.000847714 0)
(-0.00630107 -0.00130121 0)
(-0.00566877 -0.00173842 0)
(-0.00486332 -0.00212844 0)
(-0.00390928 -0.00242628 0)
(-0.002841 -0.00257137 0)
(-0.00170077 -0.00248952 0)
(-0.000686823 -0.00205865 0)
(-0.000612024 0.0026094 0)
(-0.00149513 0.00305682 0)
(-0.00250512 0.00316973 0)
(-0.00348116 0.00309717 0)
(-0.00440185 0.002886 0)
(-0.00524485 0.00257053 0)
(-0.00598671 0.00217637 0)
(-0.00660498 0.00172068 0)
(-0.00708046 0.001214 0)
(-0.0073969 0.00066312 0)
(-0.00754001 7.35005e-05 0)
(-0.00749751 -0.000548455 0)
(-0.00725957 -0.00119215 0)
(-0.00682021 -0.00183988 0)
(-0.00617974 -0.00246365 0)
(-0.00534682 -0.00302269 0)
(-0.00433855 -0.00346323 0)
(-0.0031826 -0.003721 0)
(-0.00191788 -0.00371941 0)
(-0.000772385 -0.00326047 0)
(-0.000646427 0.00362627 0)
(-0.00159803 0.00412003 0)
(-0.00269589 0.00419898 0)
(-0.00375219 0.00407523 0)
(-0.00474367 0.00379509 0)
(-0.00564879 0.00338845 0)
(-0.00644655 0.00288036 0)
(-0.00711637 0.00229015 0)
(-0.00763994 0.00163116 0)
(-0.00800105 0.000912307 0)
(-0.00818455 0.000140639 0)
(-0.00817611 -0.000675663 0)
(-0.0079622 -0.00152351 0)
(-0.00753125 -0.00238087 0)
(-0.0068759 -0.00321308 0)
(-0.00599536 -0.00397078 0)
(-0.00489756 -0.00459089 0)
(-0.00360657 -0.00499928 0)
(-0.00216734 -0.00510012 0)
(-0.00086312 -0.00459647 0)
(-0.000687609 0.00470788 0)
(-0.00171745 0.00527295 0)
(-0.00292278 0.00532277 0)
(-0.00408414 0.00514123 0)
(-0.00517272 0.00478253 0)
(-0.00616466 0.00427613 0)
(-0.00704002 0.00364751 0)
(-0.00778027 0.00291784 0)
(-0.00836894 0.00210244 0)
(-0.00879078 0.00121143 0)
(-0.00903035 0.00025211 0)
(-0.00907102 -0.000767453 0)
(-0.00889443 -0.00183385 0)
(-0.00848107 -0.00292316 0)
(-0.00781247 -0.00399627 0)
(-0.00687429 -0.00499601 0)
(-0.00566147 -0.00584701 0)
(-0.00419256 -0.00645543 0)
(-0.00251965 -0.00668705 0)
(-0.000996222 -0.00611806 0)
(-0.0007452 0.00587355 0)
(-0.00187304 0.00653624 0)
(-0.00320887 0.00656424 0)
(-0.00449916 0.00632048 0)
(-0.00570835 0.00587335 0)
(-0.00680888 0.00525645 0)
(-0.0077812 0.00449806 0)
(-0.00860921 0.00362189 0)
(-0.00927935 0.00264491 0)
(-0.00977862 0.00157732 0)
(-0.0100923 0.00042487 0)
(-0.010202 -0.000807054 0)
(-0.010084 -0.00210808 0)
(-0.00970923 -0.00345618 0)
(-0.00904421 -0.00481136 0)
(-0.00805502 -0.0061104 0)
(-0.00671496 -0.00726305 0)
(-0.00502696 -0.00814481 0)
(-0.00304195 -0.00856047 0)
(-0.00120137 -0.00791614 0)
(-0.000823251 0.00715164 0)
(-0.00207554 0.00793637 0)
(-0.00356983 0.007948 0)
(-0.00501427 0.00763638 0)
(-0.0063661 0.00708917 0)
(-0.00759392 0.00634871 0)
(-0.00867901 0.00544914 0)
(-0.00960889 0.00441825 0)
(-0.0103746 0.00327475 0)
(-0.0109674 0.00202791 0)
(-0.0113753 0.000679808 0)
(-0.0115798 -0.000770123 0)
(-0.0115527 -0.0023191 0)
(-0.0112543 -0.00395266 0)
(-0.0106325 -0.00563629 0)
(-0.00962528 -0.00730623 0)
(-0.00816884 -0.00885872 0)
(-0.00622815 -0.01013 0)
(-0.00382716 -0.0108357 0)
(-0.00151933 -0.010132 0)
(-0.000924832 0.00857635 0)
(-0.00233383 0.00950603 0)
(-0.00402021 0.00950235 0)
(-0.00564639 0.00911265 0)
(-0.00716191 0.00844932 0)
(-0.00853215 0.00756839 0)
(-0.00974094 0.0065137 0)
(-0.0107817 0.0053192 0)
(-0.0116528 0.00400587 0)
(-0.0123528 0.00258121 0)
(-0.0128758 0.00104152 0)
(-0.0132064 -0.000623453 0)
(-0.0133151 -0.00242428 0)
(-0.0131528 -0.0043621 0)
(-0.012647 -0.0064188 0)
(-0.0116975 -0.00854305 0)
(-0.0101801 -0.0106294 0)
(-0.0079804 -0.0124767 0)
(-0.00503109 -0.0136806 0)
(-0.00202471 -0.0129856 0)
(-0.00105472 0.0101881 0)
(-0.00266023 0.0112849 0)
(-0.00457922 0.0112602 0)
(-0.00641733 0.0107739 0)
(-0.0081157 0.00997052 0)
(-0.0096382 0.00892609 0)
(-0.0109743 0.00769871 0)
(-0.0121269 0.00633111 0)
(-0.0131056 0.00484746 0)
(-0.0139207 0.00325307 0)
(-0.0145768 0.00153665 0)
(-0.0150682 -0.000325324 0)
(-0.0153698 -0.00236264 0)
(-0.0154294 -0.00460286 0)
(-0.0151569 -0.00706103 0)
(-0.0144074 -0.00972332 0)
(-0.0129679 -0.0125155 0)
(-0.0105768 -0.0152326 0)
(-0.00692511 -0.0173418 0)
(-0.00286758 -0.0168321 0)
(-0.00122199 0.012038 0)
(-0.00307565 0.0133223 0)
(-0.00527599 0.0132596 0)
(-0.00735753 0.0126444 0)
(-0.00925305 0.0116647 0)
(-0.0109283 0.0104246 0)
(-0.0123836 0.00900176 0)
(-0.0136363 0.00745066 0)
(-0.0147122 0.00579983 0)
(-0.0156384 0.00405261 0)
(-0.016437 0.00218939 0)
(-0.0171194 0.000171108 0)
(-0.0176768 -0.00205528 0)
(-0.0180677 -0.00455597 0)
(-0.0181979 -0.00740142 0)
(-0.0178836 -0.0106561 0)
(-0.0168017 -0.0143458 0)
(-0.0144524 -0.0183684 0)
(-0.00994505 -0.0221535 0)
(-0.00438258 -0.0222909 0)
(-0.00144383 0.0141968 0)
(-0.00361588 0.0156811 0)
(-0.00615393 0.0155433 0)
(-0.00850664 0.0147451 0)
(-0.0106011 0.0135343 0)
(-0.0124124 0.0120533 0)
(-0.0139592 0.0104055 0)
(-0.0152801 0.0086588 0)
(-0.0164221 0.00684753 0)
(-0.0174345 0.00497447 0)
(-0.0183643 0.00301309 0)
(-0.0192494 0.000910025 0)
(-0.0201137 -0.0014138 0)
(-0.0209507 -0.00406885 0)
(-0.0216922 -0.00720411 0)
(-0.0221473 -0.0110184 0)
(-0.0218988 -0.0157581 0)
(-0.0201155 -0.0216601 0)
(-0.0145835 -0.0284244 0)
(-0.00749858 -0.0304166 0)
(-0.00175211 0.0167678 0)
(-0.00433957 0.0184407 0)
(-0.00726999 0.0181534 0)
(-0.00990236 0.0170832 0)
(-0.0121681 0.0155612 0)
(-0.0140659 0.013778 0)
(-0.0156442 0.0118672 0)
(-0.0169693 0.00991031 0)
(-0.0181132 0.00794801 0)
(-0.0191517 0.00598491 0)
(-0.020162 0.00399181 0)
(-0.0212196 0.00190705 0)
(-0.0223963 -0.00036812 0)
(-0.0237483 -0.00298366 0)
(-0.0252832 -0.00617693 0)
(-0.0268771 -0.0103344 0)
(-0.0281238 -0.0160966 0)
(-0.0278012 -0.0244952 0)
(-0.021628 -0.0361551 0)
(-0.013036 -0.0427777 0)
(-0.00220394 0.0199321 0)
(-0.00532797 0.0216962 0)
(-0.00867177 0.0211107 0)
(-0.0115342 0.0196256 0)
(-0.0138774 0.0176809 0)
(-0.0157513 0.0155177 0)
(-0.0172457 0.0132984 0)
(-0.0184597 0.0111158 0)
(-0.0194924 0.00901463 0)
(-0.0204447 0.00700312 0)
(-0.0214241 0.00505566 0)
(-0.0225452 0.00311411 0)
(-0.0239332 0.00107942 0)
(-0.0257231 -0.00121622 0)
(-0.0280336 -0.00408191 0)
(-0.0308966 -0.00811319 0)
(-0.0340246 -0.0145321 0)
(-0.0357844 -0.0259377 0)
(-0.0302559 -0.0452399 0)
(-0.0191764 -0.0619621 0)
(-0.00290374 0.0238338 0)
(-0.00668872 0.0254791 0)
(-0.0103209 0.0243305 0)
(-0.0132083 0.022219 0)
(-0.0153882 0.0197209 0)
(-0.0170189 0.0171075 0)
(-0.0182178 0.0145648 0)
(-0.019124 0.0121524 0)
(-0.0198674 0.00992542 0)
(-0.0205566 0.00790351 0)
(-0.0213186 0.00607047 0)
(-0.0222879 0.00438131 0)
(-0.0236203 0.00275475 0)
(-0.0254953 0.00103261 0)
(-0.0280876 -0.0011476 0)
(-0.0315187 -0.0046796 0)
(-0.0355306 -0.0116024 0)
(-0.0382382 -0.0262453 0)
(-0.0354027 -0.05653 0)
(-0.0191144 -0.091435 0)
(-0.00394879 0.0291779 0)
(-0.00838398 0.029816 0)
(-0.0118231 0.0275369 0)
(-0.0141799 0.0245253 0)
(-0.0156209 0.0214102 0)
(-0.0166292 0.0183319 0)
(-0.017314 0.0154184 0)
(-0.0177441 0.0127736 0)
(-0.0179972 0.0104347 0)
(-0.0181887 0.00841958 0)
(-0.0184468 0.00673389 0)
(-0.0189179 0.00535014 0)
(-0.0197524 0.00420634 0)
(-0.0211087 0.00315799 0)
(-0.0231649 0.00180102 0)
(-0.0259668 -0.00102953 0)
(-0.0292968 -0.00838062 0)
(-0.0306625 -0.0272148 0)
(-0.032312 -0.0669601 0)
(-0.00931687 -0.126508 0)
(-0.00603424 0.0346081 0)
(-0.0104751 0.0337456 0)
(-0.0117743 0.0299807 0)
(-0.0125219 0.025934 0)
(-0.0127939 0.0222097 0)
(-0.012694 0.018796 0)
(-0.0123483 0.0156228 0)
(-0.011803 0.0127569 0)
(-0.011124 0.0102855 0)
(-0.0104194 0.00826614 0)
(-0.00981555 0.00672408 0)
(-0.00943461 0.00562636 0)
(-0.00936511 0.0048912 0)
(-0.00966206 0.00435377 0)
(-0.0103894 0.00355709 0)
(-0.011668 0.00114293 0)
(-0.0136043 -0.00638638 0)
(-0.0109986 -0.0273365 0)
(-0.0241861 -0.0702104 0)
(0.0023108 -0.14736 0)
(-0.00694189 0.0501764 0)
(-0.0081852 0.039119 0)
(-0.00671746 0.03171 0)
(-0.00459341 0.0266941 0)
(-0.00223954 0.0223604 0)
(9.78679e-05 0.0183762 0)
(0.00238108 0.014738 0)
(0.00460414 0.0115706 0)
(0.00672423 0.00898647 0)
(0.00868257 0.00702933 0)
(0.0104092 0.00568222 0)
(0.0118396 0.00486017 0)
(0.0129577 0.00443318 0)
(0.0138089 0.00420828 0)
(0.014311 0.00374889 0)
(0.014369 0.0017502 0)
(0.0126357 -0.00458617 0)
(0.0167745 -0.0224675 0)
(-0.0118797 -0.0647437 0)
(0.0215651 -0.14853 0)
(-0.00354668 0.0298731 0)
(-0.000268748 0.0193111 0)
(0.00913086 0.0157047 0)
(0.0180207 0.0135142 0)
(0.0257972 0.0115599 0)
(0.032435 0.00973214 0)
(0.0380839 0.00810928 0)
(0.0428512 0.00669225 0)
(0.0468231 0.00547339 0)
(0.0500934 0.00450696 0)
(0.0527773 0.00383141 0)
(0.055023 0.00341472 0)
(0.0569295 0.00320807 0)
(0.0586058 0.00311285 0)
(0.0598818 0.00296262 0)
(0.060687 0.00156461 0)
(0.0593889 -0.00259881 0)
(0.0593927 -0.0155928 0)
(0.0261859 -0.0500537 0)
(0.0582081 -0.115431 0)
(0.0502194 0.0902743 0)
(0.0593117 0.051004 0)
(0.0878218 0.0322803 0)
(0.106136 0.0247414 0)
(0.119356 0.0199906 0)
(0.130209 0.0155456 0)
(0.139085 0.0111287 0)
(0.145852 0.00722698 0)
(0.150689 0.00418898 0)
(0.15402 0.00198202 0)
(0.156363 0.000760452 0)
(0.158335 0.000592934 0)
(0.16022 0.00093115 0)
(0.162263 0.00125618 0)
(0.16406 0.00178397 0)
(0.165894 0.00087639 0)
(0.165122 -0.000354267 0)
(0.160876 -0.00532849 0)
(0.131553 -0.0202421 0)
(0.133206 -0.112907 0)
)
;

boundaryField
{
    movingWall
    {
        type            fixedValue;
        value           uniform (1 0 0);
    }
    fixedWalls
    {
        type            noSlip;
    }
    frontAndBack
    {
        type            empty;
    }
}


// ************************************************************************* //
