/*--------------------------------*- C++ -*----------------------------------*\
  =========                 |
  \\      /  F ield         | OpenFOAM: The Open Source CFD Toolbox
   \\    /   O peration     | Website:  https://openfoam.org
    \\  /    A nd           | Version:  6
     \\/     M anipulation  |
\*---------------------------------------------------------------------------*/
FoamFile
{
    version     2.0;
    format      ascii;
    class       volScalarField;
    location    "0.4";
    object      Co;
}
// * * * * * * * * * * * * * * * * * * * * * * * * * * * * * * * * * * * * * //

dimensions      [0 0 0 0 0 0 0];

internalField   nonuniform List<scalar> 
242
(
0.00481743
0.000327695
0.000307803
0.0291969
0.0234072
0.000327694
0.000307803
0.0291969
0.0234073
0.00406421
0.00904008
0.00745313
0.00693452
0.00424719
0.00701617
0.00902083
0.00749482
0.00695412
0.00942475
0.00629732
0.0106643
0.00298003
0.00935116
0.0095527
0.00275311
0.00418748
0.00962965
0.0107059
0.0024182
0.00429844
0.0131291
0.00949701
0.00295532
0.00385752
0.00407682
0.0435511
0.00312896
0.00487388
0.00157209
0.00580745
0.00187322
0.0518931
0.00372829
0.00886301
0.00319733
0.0126383
0.00954975
0.00256516
0.0042281
0.0134374
0.00461309
0.00622911
0.0092254
0.00804764
0.00990031
0.00206467
0.0115031
0.00275344
0.0487698
0.00978826
0.0012665
0.000989435
0.0139628
0.00104758
0.0408914
0.00118569
0.0439561
0.00327659
0.00491921
0.00158671
0.0136268
0.00985698
0.00228258
0.00239047
0.00770886
0.00704777
0.006544
0.00358185
0.0138226
0.00972002
0.00473706
0.00444238
0.00992975
0.0182491
0.00222127
0.00191368
0.0133213
0.01215
0.00318131
0.00324031
0.00975868
0.00977776
0.00600823
0.00555788
0.0521731
0.0042784
0.00269677
0.00131908
0.0133164
0.0138257
0.00561919
0.00322702
0.0696811
0.0172559
0.00180955
0.00141368
0.0261321
0.00153808
0.0600381
0.00174086
0.0119738
0.00688276
0.00204117
0.00268645
0.0217909
0.0118092
0.00200927
0.00210892
0.000691807
0.0473237
0.000599612
0.0147495
0.0221315
0.000640538
0.0404794
0.000653235
0.00526873
0.00609731
0.00456018
0.00234174
0.00069244
0.000600162
0.0473669
0.0292606
0.0364981
0.000641125
0.0405164
0.000653834
0.0152224
0.0132653
0.00201104
0.00213649
0.0125822
0.00633799
0.00584419
0.00425251
0.0099903
0.00954797
0.0077549
0.00407941
0.0107929
0.00467208
0.0134231
0.00310711
0.0635073
0.0127461
0.0067443
0.0111901
0.00900217
0.0111402
0.002982
0.00218571
0.048033
0.0164013
0.00145423
0.00123053
0.00164922
0.00128843
0.00334253
0.00221088
0.00999218
0.00791786
0.00721574
0.00308314
0.012968
0.0132399
0.00727306
0.00574653
0.0131843
0.0242305
0.0322065
0.0011684
0.0174505
0.00115931
0.0012387
0.00111624
0.0120562
0.0110878
0.00963549
0.00982659
0.00576889
0.00493753
0.00347464
0.00302001
0.0146962
0.0132652
0.00966962
0.0138847
0.00514591
0.00416693
0.00347727
0.00355181
0.0195018
0.0169904
0.00305131
0.00313326
0.0123048
0.0225888
0.0283981
0.0127429
0.00156216
0.00156216
0.00147617
0.00147617
0.00780416
0.00937371
0.070083
0.00595602
0.0131404
0.0107648
0.0036225
0.00177189
0.00392511
0.00259623
0.0593893
0.00555685
0.00168945
0.00106825
0.00727394
0.001184
0.053094
0.00170539
0.0143834
0.0117431
0.00656404
0.00506084
0.00716293
0.0107854
0.00561124
0.00288148
0.00621677
0.00704506
)
;

boundaryField
{
    frontAndBack
    {
        type            empty;
    }
    fixedWalls
    {
        type            zeroGradient;
    }
    movingWall
    {
        type            zeroGradient;
    }
}


// ************************************************************************* //
