/*--------------------------------*- C++ -*----------------------------------*\
  =========                 |
  \\      /  F ield         | OpenFOAM: The Open Source CFD Toolbox
   \\    /   O peration     | Website:  https://openfoam.org
    \\  /    A nd           | Version:  6
     \\/     M anipulation  |
\*---------------------------------------------------------------------------*/
FoamFile
{
    version     2.0;
    format      ascii;
    class       volScalarField;
    location    "0.4";
    object      p;
}
// * * * * * * * * * * * * * * * * * * * * * * * * * * * * * * * * * * * * * //

dimensions      [0 2 -2 0 0 0 0];

internalField   nonuniform List<scalar> 
242
(
-1.51053e-08
0.011211
-0.010852
0.356916
-0.260756
0.0109901
-0.0110495
0.402151
-0.210739
-0.0017468
-0.0213633
0.0190307
-0.0175777
0.00194232
-0.0146742
-0.0177963
0.00553995
0.00990603
-0.0216043
-0.0202878
0.0230646
0.00118371
-0.0453147
0.0112017
-0.00782864
0.0153846
-0.0441883
0.0187045
-0.00913175
0.0125472
0.0417021
-0.0510854
0.00695964
-0.0158937
-0.00891177
-0.0265682
-0.0238017
0.036205
0.00163177
0.0418577
0.00345424
-0.0531823
-0.020201
0.0129819
-0.00164846
0.0320706
-0.0473057
0.00806464
-0.0131669
-0.0239916
-0.00945828
-0.0106693
-0.00935599
0.000407628
0.0444921
0.00395891
-0.0563574
-0.0184638
0.0397408
-0.0768785
0.0136913
-0.00890878
0.0969171
0.0087096
-0.0809444
-0.0133076
-0.017215
-0.0278175
0.0287789
-0.000765761
0.0588171
-0.074212
0.00763985
-0.0144906
-0.0294972
-0.0281887
0.0280369
-0.000477126
0.0071593
-0.0296698
0.0113811
-0.0074761
0.0303133
-0.0784474
0.012721
-0.00978089
0.0155424
-0.0371786
0.0105754
-0.00900199
0.00517746
0.0092653
0.00663496
0.00509873
-0.0257553
-0.0332703
0.0248121
-0.00232814
-0.032168
0.0303033
-0.0198148
0.00164834
0.0651239
-0.0908395
0.0124248
-0.00990334
0.114381
0.00981041
-0.10271
-0.0121741
-0.0590692
0.0195062
-0.00814583
0.0145295
0.0701394
-0.0808594
0.00961823
-0.0126469
0.0114755
0.1255
-0.0106593
-0.127495
0.183342
0.010708
-0.123142
-0.0112764
-0.0144749
-0.0306219
0.0255093
-0.00146843
0.011147
-0.0109259
0.17544
-0.157218
0.202981
0.0110352
-0.141033
-0.0109687
0.0470593
-0.0717972
0.0108122
-0.0109853
-0.00303419
-0.0253929
0.0143291
-0.00407641
-0.0328981
-0.0251534
-0.0378259
-0.0199515
0.0322341
0.00124559
0.037747
0.00313801
0.00366639
-0.0607217
-0.0643189
0.00297735
-0.0530479
0.0557422
-0.01561
0.00687664
-0.0687878
0.0719405
-0.0147047
0.00730221
0.0151018
-0.00770679
0.0161254
-0.00729792
-0.0106115
-0.0266007
0.0179679
-0.00269172
-0.00678256
-0.0133581
-0.0183766
-0.0163265
0.0546788
-0.0932851
0.0923107
0.0121381
-0.100348
-0.00996441
0.00992052
-0.0119526
-0.000702527
-0.00809383
-0.0386599
-0.0315254
0.0196822
0.0188385
-0.00469602
-0.00275721
-0.0288693
-0.0384317
0.0199962
0.0246819
-0.014145
0.00474075
-0.0121849
0.00735946
0.0355195
-0.0570814
0.0107711
-0.0110283
0.0906971
-0.115663
0.109627
-0.108687
0.0116009
0.0107257
-0.0106428
-0.0114331
-0.00193526
-0.000567734
-0.0121356
-0.0407422
-0.00821667
-0.0446618
0.0201326
-0.00464785
0.0192349
-0.00492195
-0.0064635
-0.0486091
0.0171796
-0.00628427
0.0563532
0.0056641
-0.0700536
-0.0167606
-0.0447081
0.0372129
-0.0189514
0.00422986
-0.0134343
-0.0386437
0.0210914
-0.00394335
-0.00218079
-0.00722753
)
;

boundaryField
{
    frontAndBack
    {
        type            empty;
    }
    fixedWalls
    {
        type            zeroGradient;
    }
    movingWall
    {
        type            zeroGradient;
    }
}


// ************************************************************************* //
