/*--------------------------------*- C++ -*----------------------------------*\
  =========                 |
  \\      /  F ield         | OpenFOAM: The Open Source CFD Toolbox
   \\    /   O peration     | Website:  https://openfoam.org
    \\  /    A nd           | Version:  6
     \\/     M anipulation  |
\*---------------------------------------------------------------------------*/
FoamFile
{
    version     2.0;
    format      ascii;
    class       surfaceScalarField;
    location    "0.4";
    object      phi;
}
// * * * * * * * * * * * * * * * * * * * * * * * * * * * * * * * * * * * * * //

dimensions      [0 3 -1 0 0 0 0];

internalField   nonuniform List<scalar> 
343
(
0.000419501
-0.000416741
-2.76081e-06
3.27295e-05
-3.27295e-05
3.07428e-05
-3.07428e-05
0.00291613
-0.00291613
0.00233787
-0.00233787
3.27295e-05
3.07428e-05
0.00291613
0.00233787
0.000360085
5.94169e-05
-0.000225833
-0.000507171
0.000733003
-0.000542973
0.00053826
4.71274e-06
0.000594175
-0.000215015
-0.00037916
0.000135609
0.000175381
-0.00031099
0.00038004
-0.000755012
0.000374973
0.0008672
-0.000487161
-0.000718522
0.000654941
6.35814e-05
-0.000659071
-5.94513e-05
0.00065624
-0.000882072
0.000190132
0.000404042
-0.000823479
0.000280507
-9.32176e-05
0.000228826
-0.00042012
0.000998494
-0.000578374
-0.000385323
-0.000642748
0.00102807
0.00025353
4.27622e-05
-0.000296293
0.00045066
-2.96221e-05
-0.000421038
-0.000974393
0.000554273
0.000737107
-0.00112243
8.72736e-06
0.000244803
0.000232267
0.000218393
0.000772144
-0.00131317
0.000541031
-0.000104133
0.000952288
-0.000848155
-0.00022632
-6.92721e-05
0.000295592
-0.000389501
-2.14369e-08
0.000389522
0.000196831
0.000163254
-0.00477651
0.00477651
-0.000343172
0.000343172
-0.000534548
0.000534548
-0.000172421
0.000172421
-9.45714e-06
-0.000525091
-8.695e-05
-8.54709e-05
-0.000943768
-0.00383275
-0.000220063
-0.000123109
-0.000120811
0.000234798
0.00117852
-0.000406374
-0.000878868
0.000774735
1.28816e-05
-0.000239201
-0.000206485
-0.000183016
0.000577998
0.000289203
-0.000115679
0.000312509
0.000414411
-0.000251158
-0.000601256
-0.000153756
0.000247266
0.000407675
0.000802812
-0.000812269
8.24454e-05
-0.000169395
-0.000421075
-0.000522692
5.84178e-06
-0.000225905
0.0047631
-0.0047631
0.000955971
-0.000955971
0.000123693
-0.000123693
9.66333e-05
-9.66333e-05
-0.00138847
0.00138847
-0.000104172
0.000104172
-0.00406628
0.00406628
-0.000117906
0.000117906
0.0043419
0.000434617
0.000356052
-1.28799e-05
0.000224428
0.000310121
0.000109775
6.2646e-05
-0.00126207
-5.11091e-05
0.000663134
0.000289154
-0.000219966
0.000150694
-0.00023113
0.000231108
-0.000109305
0.000612991
-0.000503685
0.000537861
-0.000585496
4.76356e-05
6.60474e-05
-0.000520363
0.000454316
0.000130524
-0.00028482
0.000154296
-0.00121038
0.000153823
0.00105655
0.000831054
-0.000253057
4.65666e-05
0.000372434
-0.000419001
0.000264408
-0.000380086
0.000583764
0.000405305
-0.000989069
-0.00111817
-0.000699563
0.00181773
-0.000221253
0.000201971
1.92827e-05
-0.000190615
0.000152327
3.82877e-05
-0.00047327
-0.000143338
0.000278833
0.000273135
-0.00065051
0.000804333
-0.000709962
0.000436015
1.92748e-05
0.0043419
0.000356052
0.000224428
0.000109775
-0.000148545
0.000804784
-0.000137595
-0.000685885
0.000340342
-0.00015021
9.89887e-05
-0.000192206
0.00378452
0.000978583
0.00117954
-0.000223572
5.53245e-05
6.83687e-05
4.79518e-05
4.86815e-05
-0.00176988
0.000381411
-5.12247e-05
-5.29473e-05
-0.00323718
-0.000829099
-5.22401e-05
-6.56654e-05
-0.000119677
-5.89837e-05
-0.000147852
-0.000250875
0.0011235
-0.00238557
-0.000629445
0.00129258
-0.000181162
-3.8804e-05
-0.000214114
-1.70155e-05
5.53245e-05
0.00378452
4.79518e-05
0.00117954
-0.00176988
-5.12247e-05
-0.00323718
-5.22401e-05
0.000325312
0.000524981
0.000376168
0.00019317
2.25951e-05
1.7209e-05
0.000868393
-0.00115833
0.00114625
-1.84952e-05
-0.000899312
-2.14973e-05
0.0015288
-0.00132901
2.08083e-05
-6.17872e-05
0.000512566
0.000543988
0.000321312
-0.000574369
-0.000539812
-0.000145289
0.000464446
-0.000245154
4.33706e-05
-0.000239312
-0.000657958
-0.000185831
0.000144854
-0.000103385
-0.000819414
-0.00394369
-0.000586974
-0.000368997
-0.000233538
-0.000878398
-0.000706652
-0.000863378
5.20333e-06
-1.87011e-05
0.00383275
0.000525091
0.000123109
8.54709e-05
-1.15068e-05
-0.000112186
-2.56974e-05
-7.09358e-05
-0.000262382
-0.00017355
-0.000369507
0.000725355
-0.000259305
8.35378e-05
0.000994332
-0.000450343
-0.000199397
-1.0486e-05
0.00159416
-0.00200415
8.76514e-05
0.00046348
8.69692e-05
-9.17513e-05
-8.26808e-05
0.000873192
0.000154879
-0.00077299
0.000194616
0.000195011
-0.000226027
-0.000237834
-5.8459e-05
0.00102221
-0.000705249
-6.66505e-05
-0.000291715
0.000857907
0.000435833
0.000110247
0.000104178
-0.00035399
0.000398207
0.00394369
-1.29449e-05
0.000368997
-0.000480191
-0.000719597
0.000112241
0.000112186
3.88391e-05
7.09358e-05
-0.000150141
-0.000134711
0.000404914
)
;

boundaryField
{
    frontAndBack
    {
        type            empty;
        value           nonuniform 0();
    }
    fixedWalls
    {
        type            calculated;
        value           uniform 0;
    }
    movingWall
    {
        type            calculated;
        value           uniform 0;
    }
}


// ************************************************************************* //
