/*--------------------------------*- C++ -*----------------------------------*\
  =========                 |
  \\      /  F ield         | OpenFOAM: The Open Source CFD Toolbox
   \\    /   O peration     | Website:  https://openfoam.org
    \\  /    A nd           | Version:  6
     \\/     M anipulation  |
\*---------------------------------------------------------------------------*/
FoamFile
{
    version     2.0;
    format      ascii;
    class       volVectorField;
    location    "0.4";
    object      U;
}
// * * * * * * * * * * * * * * * * * * * * * * * * * * * * * * * * * * * * * //

dimensions      [0 1 -1 0 0 0 0];

internalField   nonuniform List<vector> 
242
(
(-0.0456086 -0.00117592 -3.90702e-22)
(-0.00144315 -0.00175216 4.48233e-20)
(-0.00165526 0.00129023 0)
(0.356939 -0.0116493 0)
(0.0313731 0.141939 9.508e-19)
(-0.00176544 -0.0013772 -4.48248e-20)
(-0.00135732 0.00162654 0)
(0.168811 -0.117958 0)
(0.339622 0.0427642 -9.53099e-19)
(-0.0423216 0.00174578 0)
(-0.0950236 0.0207215 5.31816e-20)
(-0.0663707 -0.0390328 0)
(-0.0413384 0.0282272 0)
(-0.0342876 -0.00254409 -2.1631e-21)
(-0.06608 0.021447 1.60375e-20)
(-0.0763637 0.0236999 0)
(-0.059078 -0.010941 1.30669e-21)
(-0.0613651 -0.0186401 0)
(-0.100123 0.0235043 0)
(-0.0384884 0.035097 0)
(-0.0629812 -0.048078 -3.52728e-20)
(-0.0310547 -0.00155102 3.68514e-21)
(-0.0640618 0.075507 8.60731e-20)
(-0.111427 -0.0131889 0)
(-0.0249632 0.00900815 0)
(-0.024267 -0.02812 -2.66362e-20)
(-0.0739021 0.0698491 -9.05246e-20)
(-0.121323 -0.0259237 0)
(-0.0248078 0.0112436 -2.27203e-20)
(-0.0280362 -0.021513 4.97477e-20)
(-0.0889833 -0.0835432 0)
(-0.104705 0.0498398 -1.28209e-19)
(-0.0263864 -0.00855054 -9.59615e-21)
(-0.0227799 0.0268587 3.0785e-20)
(-0.0428924 0.0133479 0)
(0.542463 -0.00928995 7.61915e-20)
(-0.00551102 0.0268145 0)
(-0.00738198 -0.0451861 -7.30332e-20)
(-0.0136204 -0.000566852 0)
(-0.0179734 -0.0720827 1.42413e-19)
(-0.0175275 -0.00140155 0)
(0.354108 0.00796151 -1.59666e-19)
(-0.00848529 0.0298227 0)
(-0.0580046 -0.0249744 3.68592e-20)
(-0.0370604 0.00227304 7.55379e-21)
(-0.101247 -0.061852 1.85974e-20)
(-0.099335 0.0546079 0)
(-0.0270852 -0.0105706 -1.16198e-20)
(-0.026372 0.020685 0)
(-0.0802778 0.0331933 5.14256e-21)
(-0.039244 0.0134022 2.53695e-22)
(-0.0481323 0.0167913 -1.33011e-20)
(-0.0665018 0.0135308 0)
(-0.0604131 -0.00271235 -2.45748e-21)
(-0.0398603 -0.0879333 1.00242e-19)
(-0.0217482 -0.00159478 8.59948e-21)
(0.0617624 0.0327489 0)
(-0.011112 0.0321245 0)
(0.589961 -0.00366992 0)
(-0.0131657 0.0887199 0)
(-0.0025406 -0.0102098 1.17694e-20)
(-0.00795345 0.00137935 -8.49296e-21)
(-0.0242162 -0.129581 -2.17829e-19)
(-0.0085148 -0.00149063 0)
(0.534519 0.00892587 0)
(-0.00246877 0.00964044 2.56621e-20)
(0.314071 0.00207186 0)
(-0.00912492 0.0442278 0)
(-0.0119727 -0.0467455 0)
(-0.0182425 0.000513881 1.10534e-21)
(-0.0900025 -0.12602 0)
(-0.0703678 0.0482169 2.15968e-19)
(-0.0206252 -0.00663882 2.47145e-20)
(-0.0132542 0.0223873 -4.67507e-20)
(-0.0575016 -0.000608425 -3.98951e-20)
(-0.0269044 0.0525494 1.03689e-19)
(-0.0289272 -0.0582672 -5.96522e-20)
(-0.0269316 -0.000240871 3.87268e-21)
(-0.105785 -0.019148 2.79099e-23)
(-0.0686038 0.0468791 7.97338e-20)
(-0.0391267 -0.0227723 0)
(-0.0347489 0.0101169 -6.3851e-22)
(-0.0834588 -0.0807346 -9.1076e-20)
(-0.0953068 0.12708 -1.79327e-19)
(-0.0126429 -0.0170413 0)
(-0.0159791 0.00803771 2.03758e-20)
(-0.108317 -0.0302242 0)
(-0.077315 0.0552024 -1.33079e-19)
(-0.032148 -0.019195 -1.63633e-20)
(-0.0300355 0.01148 2.19212e-20)
(-0.082814 -0.0139314 1.80322e-20)
(-0.0790396 -0.020042 -2.04032e-20)
(-0.0454648 -0.0135257 2.14461e-21)
(-0.0434572 -0.0104367 4.32638e-22)
(0.654911 0.00797627 0)
(-0.00505723 0.0314575 4.51243e-20)
(-0.0034726 -0.022899 -2.65855e-20)
(-0.010248 0.000149326 -4.39366e-21)
(-0.099401 0.0298321 0)
(-0.0601653 -0.0621866 -6.30946e-20)
(-0.031268 0.0361791 -3.69914e-20)
(-0.0288658 -0.00126222 -7.32524e-21)
(0.372804 -0.0328179 -4.4509e-20)
(-0.0321877 0.147622 0)
(-0.00433676 -0.0109472 -4.72611e-20)
(-0.0091618 0.0027685 0)
(-0.0541123 -0.209805 3.18981e-19)
(-0.00976282 -0.0029468 7.33581e-21)
(0.298743 0.0364094 -8.31045e-20)
(-0.00407149 0.010312 -3.78121e-20)
(-0.0568505 0.108962 0)
(-0.0651459 -0.0193736 0)
(-0.0196423 0.00648486 0)
(-0.014281 -0.0239984 0)
(-0.143026 -0.15083 0)
(-0.0949667 0.0910101 -2.47093e-19)
(-0.017155 -0.0087008 -8.06182e-21)
(-0.0123152 0.0163305 1.28109e-20)
(-0.001678 -0.00431967 -2.80514e-20)
(0.597496 0.000474621 0)
(-0.00374422 0.00126064 -2.67655e-20)
(-0.00934301 0.134191 0)
(-0.00309306 -0.198103 0)
(-0.00400778 -0.00134326 0)
(0.540564 0.0295661 -2.58493e-19)
(-0.00157445 0.00405489 2.02915e-20)
(0.0652861 -0.00755281 0)
(-0.0194167 0.0567077 -7.81266e-20)
(-0.0191169 -0.0494859 6.61274e-20)
(-0.0234126 0.000583827 -3.81472e-21)
(-0.00278425 -0.00497395 2.15521e-20)
(-0.00460839 0.00234392 3.43405e-20)
(0.254596 -0.0495051 0)
(-0.0517889 0.255629 0)
(0.00272131 -0.339597 0)
(-0.00491926 -0.00251475 0)
(0.139592 0.0771396 2.57807e-19)
(-0.00263438 0.00469999 -3.54611e-20)
(-0.140996 -0.0802441 0)
(-0.102793 0.0968867 0)
(-0.0177616 -0.0133816 0)
(-0.016685 0.013025 0)
(-0.104402 -0.000139239 0)
(-0.0558516 0.0420853 0)
(-0.0446322 -0.028429 -3.00622e-20)
(-0.0350362 0.00523703 -2.47548e-21)
(-0.0747671 0.0128913 5.08713e-20)
(-0.0257581 0.047222 3.00541e-20)
(-0.0425575 0.0334171 0)
(-0.015277 0.037581 -3.72338e-20)
(-0.0405339 -0.0659218 1.37426e-21)
(-0.0275831 -0.0010852 8.10319e-22)
(-0.0485051 -0.0778344 -1.34881e-19)
(-0.0250458 -0.00161095 -1.7694e-20)
(0.421886 -0.00344537 0)
(-0.0245624 0.0952781 0)
(0.0593068 0.0262926 0)
(0.0757086 0.00386431 0)
(-0.0366977 0.0980035 1.56639e-20)
(-0.0619508 -0.118543 0)
(-0.00935886 0.0236209 0)
(-0.0194214 -0.00392981 0)
(0.306522 0.0202895 1.68045e-19)
(-0.0399044 -0.129189 1.53284e-19)
(-0.00435175 0.0173199 3.8122e-20)
(-0.0138986 -0.00191359 1.5471e-20)
(-0.00419847 -0.0180578 1.95992e-20)
(-0.0129415 0.00172877 1.11316e-20)
(-0.00985564 -0.026177 0)
(-0.0188448 0.00381876 0)
(-0.10463 0.00567376 -2.14353e-20)
(-0.0501317 0.0449098 -6.52313e-20)
(-0.0429984 -0.0371452 5.07227e-20)
(-0.0307477 0.00296966 3.15714e-21)
(-0.0917014 0.00655095 -1.01804e-20)
(-0.0910719 0.0151989 -2.32111e-20)
(-0.0548694 0.0289816 -1.05183e-20)
(-0.0479497 0.0267505 -1.21272e-20)
(0.0285803 -0.109257 1.34832e-19)
(-0.0906592 0.156305 2.34662e-19)
(-0.127961 -0.200119 3.44571e-20)
(-0.00784346 -0.0127882 8.27847e-21)
(-0.0336212 0.0979518 2.53266e-19)
(-0.0118824 0.0053211 -2.66402e-20)
(-0.0125404 -0.00558884 -6.73967e-21)
(-0.00736686 0.0121105 8.24703e-21)
(-0.0955569 0.00716523 4.68868e-21)
(-0.104413 0.00701533 2.38945e-20)
(-0.0456838 0.0697087 8.88921e-20)
(-0.0462471 0.0560151 -1.49626e-20)
(-0.0350643 -0.040204 3.18291e-20)
(-0.0255056 -0.0354212 -5.81234e-20)
(-0.0274067 0.00456557 8.82238e-21)
(-0.0283168 0.00254822 -1.85461e-20)
(-0.095999 0.031968 -4.16438e-20)
(-0.0946139 0.0486522 4.97194e-20)
(-0.0805116 -0.040738 -3.05894e-20)
(-0.0954947 -0.0460083 2.66602e-20)
(-0.0369746 0.0222046 5.02595e-22)
(-0.0364269 -0.00783018 0)
(-0.0299804 0.0192218 0)
(-0.0321445 -0.0107659 8.01731e-21)
(-0.132282 -0.0631947 -2.21585e-20)
(-0.0969008 0.0800242 0)
(-0.0235093 -0.0152657 -6.22517e-21)
(-0.0215901 0.0147537 6.69247e-21)
(-0.0203851 -0.162127 2.62223e-20)
(-0.110785 0.172738 0)
(-0.115425 -0.225187 -3.62127e-20)
(-0.0607118 0.135885 8.86207e-20)
(-0.00688364 -0.00874416 8.15219e-21)
(-0.00912714 -0.00606364 0)
(-0.00865779 0.0056839 -7.71379e-21)
(-0.00653613 0.0082249 8.02676e-21)
(-0.0688577 2.25444e-05 -1.05075e-21)
(-0.0788179 -0.00191662 9.15217e-21)
(0.436532 0.0122646 1.53168e-20)
(-0.0104777 0.058181 -9.5625e-20)
(0.124687 0.00728539 0)
(-0.0257764 0.078965 -1.11387e-19)
(-0.00521805 -0.0267859 5.55865e-21)
(-0.0148227 0.000710117 1.4772e-20)
(-0.0101713 -0.0329564 6.06195e-20)
(-0.0207352 0.00169223 0)
(0.74495 0.007658 -1.37351e-20)
(-0.00537872 0.0379179 0)
(-0.0015015 -0.0112647 2.74081e-20)
(-0.00689286 0.000346217 -7.96699e-21)
(-0.0101266 -0.0548491 -2.42191e-19)
(-0.00797171 -0.000646611 -1.75621e-20)
(0.687726 0.0144974 -1.04296e-19)
(-0.00222218 0.0117149 -4.32734e-20)
(-0.0988851 0.0305492 0)
(-0.0632694 -0.0763163 5.77507e-20)
(-0.022865 0.0327461 0)
(-0.0285349 -0.00479601 2.40149e-21)
(0.0116042 0.00735767 -5.89554e-21)
(-0.0317878 0.0724864 1.3938e-19)
(-0.0165202 -0.0392688 -4.55732e-20)
(-0.0238773 0.00213494 0)
(-0.0537459 0.00344831 0)
(-0.0567083 0.0109997 1.54129e-20)
)
;

boundaryField
{
    frontAndBack
    {
        type            empty;
    }
    fixedWalls
    {
        type            noSlip;
    }
    movingWall
    {
        type            fixedValue;
        value           uniform (1 0 0);
    }
}


// ************************************************************************* //
