/*--------------------------------*- C++ -*----------------------------------*\
| =========                 |                                                 |
| \\      /  F ield         | OpenFOAM: The Open Source CFD Toolbox           |
|  \\    /   O peration     | Version:  5.0                                   |
|   \\  /    A nd           | Web:      www.OpenFOAM.org                      |
|    \\/     M anipulation  |                                                 |
\*---------------------------------------------------------------------------*/
FoamFile
{
    version     2.0;
    format      ascii;
    class       volScalarField;
    location    "6";
    object      k;
}
// * * * * * * * * * * * * * * * * * * * * * * * * * * * * * * * * * * * * * //

dimensions      [0 2 -2 0 0 0 0];

internalField   nonuniform List<scalar> 
400
(
3.43568e-10
1.89521e-09
1.20509e-08
8.21107e-08
2.87319e-07
5.98355e-07
9.29556e-07
1.25468e-06
1.56534e-06
1.87786e-06
2.19822e-06
2.58112e-06
3.07966e-06
3.41119e-06
3.52557e-06
3.51521e-06
2.68045e-06
1.73843e-06
6.83326e-07
3.25533e-07
4.74594e-09
5.92051e-08
2.31252e-07
7.90471e-07
2.26873e-06
5.44136e-06
1.04735e-05
1.69378e-05
2.35339e-05
3.0033e-05
3.4782e-05
3.75267e-05
3.85602e-05
3.82729e-05
3.47275e-05
3.03637e-05
2.15603e-05
1.19735e-05
3.8004e-06
1.28431e-06
4.65907e-08
3.92801e-07
1.31063e-06
4.13095e-06
1.21769e-05
2.94129e-05
5.80906e-05
9.0947e-05
0.000114822
0.000135581
0.000145314
0.000149468
0.000149475
0.000139776
0.000124604
0.000105483
7.63491e-05
4.24643e-05
1.14034e-05
2.57149e-06
1.566e-07
1.25064e-06
4.31782e-06
1.44624e-05
4.42557e-05
9.12483e-05
0.000132787
0.000156389
0.000176073
0.000190014
0.000197434
0.000202751
0.0002043
0.000204733
0.000204606
0.000196747
0.000176553
0.000108721
2.75876e-05
3.80065e-06
3.97901e-07
3.22651e-06
1.16179e-05
3.63451e-05
8.1147e-05
0.000122502
0.000142163
0.000154999
0.000161414
0.00016336
0.000165081
0.000176235
0.000189923
0.000205296
0.000218365
0.000226597
0.00022834
0.000189218
5.2064e-05
4.92526e-06
7.25333e-07
6.09324e-06
2.03281e-05
5.38248e-05
0.000101669
0.000124416
0.000133189
0.000131613
0.000111303
0.000103069
0.000100869
0.000107965
0.000130839
0.00015939
0.000198395
0.000233247
0.000249266
0.000237283
8.2788e-05
5.8925e-06
9.63036e-07
8.39875e-06
2.64467e-05
6.53478e-05
0.000104872
0.000117692
0.000113395
9.27703e-05
7.28902e-05
6.59662e-05
6.45218e-05
7.24243e-05
9.30525e-05
0.000122633
0.000164085
0.000211078
0.000254379
0.000259221
0.000112968
6.65317e-06
9.46676e-07
9.64199e-06
2.99749e-05
7.16687e-05
0.000101517
0.000104417
9.30779e-05
6.96758e-05
5.51958e-05
5.08569e-05
5.07104e-05
5.9475e-05
7.86935e-05
0.000108166
0.000149174
0.000194882
0.00024867
0.000269063
0.000136763
7.24904e-06
8.42869e-07
9.47249e-06
2.95694e-05
7.07569e-05
9.42056e-05
9.41316e-05
8.23731e-05
6.35848e-05
5.10162e-05
4.70886e-05
4.75874e-05
5.6752e-05
7.55593e-05
0.000104458
0.000143021
0.000187364
0.000228861
0.000271497
0.000154885
7.73198e-06
6.10349e-07
8.81378e-06
2.79101e-05
6.75335e-05
9.00589e-05
8.96868e-05
8.15849e-05
6.53764e-05
5.36559e-05
5.04169e-05
5.38506e-05
6.55589e-05
8.48105e-05
0.00011133
0.000141464
0.00018481
0.000213227
0.00026882
0.000167055
8.15251e-06
4.43549e-07
7.34366e-06
2.41826e-05
6.07699e-05
8.62282e-05
8.84762e-05
8.31417e-05
7.12016e-05
6.21581e-05
6.21924e-05
6.99729e-05
8.38589e-05
0.00010147
0.000124688
0.000145871
0.00018417
0.00019889
0.00025721
0.000172811
8.55354e-06
3.21709e-07
5.44246e-06
1.8883e-05
5.12372e-05
8.13903e-05
8.84896e-05
8.7001e-05
8.38527e-05
8.24962e-05
8.63671e-05
9.45781e-05
0.000105915
0.000118848
0.000136089
0.000149988
0.000183099
0.000190605
0.000250138
0.000174611
9.02517e-06
2.24891e-07
3.56476e-06
1.35527e-05
3.95319e-05
7.37345e-05
8.70085e-05
9.57664e-05
0.000101011
0.000104834
0.000110621
0.000117427
0.000125737
0.000134714
0.000147971
0.000157486
0.000181712
0.000184204
0.000237318
0.000169967
9.58356e-06
1.4818e-07
2.10055e-06
8.79151e-06
2.60135e-05
6.17622e-05
8.25869e-05
9.53209e-05
0.000106385
0.000115393
0.00012339
0.00012995
0.000138204
0.000144968
0.000155235
0.000161012
0.000178326
0.000178033
0.000227437
0.000155636
1.03598e-05
8.48854e-08
1.08632e-06
5.12289e-06
1.57885e-05
4.27966e-05
7.22222e-05
9.02393e-05
0.000103752
0.000114342
0.00012451
0.000132906
0.000143236
0.000148966
0.000157986
0.000162276
0.000174215
0.000172492
0.00021275
0.000139518
1.07346e-05
3.84247e-08
5.41276e-07
2.72048e-06
8.72121e-06
2.28711e-05
5.04314e-05
7.57668e-05
9.31124e-05
0.000105709
0.000118504
0.000127238
0.0001395
0.000146627
0.000155882
0.000157947
0.00016218
0.000159095
0.000190232
0.000116634
1.08408e-05
1.50452e-08
2.76001e-07
1.41819e-06
4.50161e-06
1.13769e-05
2.66599e-05
4.57238e-05
6.53157e-05
7.93171e-05
9.35867e-05
0.000104426
0.000114357
0.000123687
0.000128843
0.000128409
0.000129133
0.000138561
0.000163567
9.34698e-05
1.0257e-05
1.98946e-08
1.98128e-07
7.85288e-07
2.27325e-06
5.39562e-06
1.19132e-05
2.18665e-05
3.37172e-05
4.32336e-05
5.15431e-05
5.7869e-05
6.40758e-05
6.84411e-05
7.53109e-05
8.45034e-05
9.91528e-05
0.000131811
0.000137548
6.67271e-05
8.65253e-06
6.84673e-08
3.39634e-07
8.24293e-07
1.86619e-06
3.53945e-06
6.07029e-06
1.11725e-05
1.47613e-05
2.24298e-05
2.68724e-05
3.57304e-05
4.28998e-05
5.64774e-05
7.01817e-05
9.20953e-05
0.000122288
0.000159871
0.000129341
4.05277e-05
6.20439e-06
2.89011e-08
6.02673e-08
1.56939e-07
3.60015e-07
5.22035e-07
7.24174e-07
1.2424e-06
1.51582e-06
2.16606e-06
2.43115e-06
3.02003e-06
3.2631e-06
4.10141e-06
4.65217e-06
6.05873e-06
5.91628e-06
6.05266e-06
5.96908e-06
5.36161e-06
3.53004e-06
)
;

boundaryField
{
    movingWall
    {
        type            kqRWallFunction;
        value           nonuniform List<scalar> 
20
(
2.89011e-08
6.02673e-08
1.56939e-07
3.60015e-07
5.22035e-07
7.24174e-07
1.2424e-06
1.51582e-06
2.16606e-06
2.43115e-06
3.02003e-06
3.2631e-06
4.10141e-06
4.65217e-06
6.05873e-06
5.91628e-06
6.05266e-06
5.96908e-06
5.36161e-06
3.53004e-06
)
;
    }
    fixedWalls
    {
        type            kqRWallFunction;
        value           nonuniform List<scalar> 
60
(
3.43568e-10
4.74594e-09
4.65907e-08
1.566e-07
3.97901e-07
7.25333e-07
9.63036e-07
9.46676e-07
8.42869e-07
6.10349e-07
4.43549e-07
3.21709e-07
2.24891e-07
1.4818e-07
8.48854e-08
3.84247e-08
1.50452e-08
1.98946e-08
6.84673e-08
2.89011e-08
3.25533e-07
1.28431e-06
2.57149e-06
3.80065e-06
4.92526e-06
5.8925e-06
6.65317e-06
7.24904e-06
7.73198e-06
8.15251e-06
8.55354e-06
9.02517e-06
9.58356e-06
1.03598e-05
1.07346e-05
1.08408e-05
1.0257e-05
8.65253e-06
6.20439e-06
3.53004e-06
3.43568e-10
1.89521e-09
1.20509e-08
8.21107e-08
2.87319e-07
5.98355e-07
9.29556e-07
1.25468e-06
1.56534e-06
1.87786e-06
2.19822e-06
2.58112e-06
3.07966e-06
3.41119e-06
3.52557e-06
3.51521e-06
2.68045e-06
1.73843e-06
6.83326e-07
3.25533e-07
)
;
    }
    frontAndBack
    {
        type            empty;
    }
}


// ************************************************************************* //
