/*--------------------------------*- C++ -*----------------------------------*\
| =========                 |                                                 |
| \\      /  F ield         | OpenFOAM: The Open Source CFD Toolbox           |
|  \\    /   O peration     | Version:  5.0                                   |
|   \\  /    A nd           | Web:      www.OpenFOAM.org                      |
|    \\/     M anipulation  |                                                 |
\*---------------------------------------------------------------------------*/
FoamFile
{
    version     2.0;
    format      ascii;
    class       volScalarField;
    location    "6";
    object      nut;
}
// * * * * * * * * * * * * * * * * * * * * * * * * * * * * * * * * * * * * * //

dimensions      [0 2 -1 0 0 0 0];

internalField   nonuniform List<scalar> 
400
(
2.68413e-12
1.48063e-11
9.4148e-11
6.4149e-10
2.24468e-09
4.67465e-09
7.26215e-09
9.80221e-09
1.22292e-08
1.46708e-08
1.71736e-08
2.0165e-08
2.40599e-08
2.66499e-08
2.75436e-08
2.74626e-08
2.0941e-08
1.35815e-08
5.33848e-09
2.54323e-09
3.70776e-11
1.23463e-09
3.18994e-09
9.69952e-09
2.84107e-08
8.06903e-08
1.81338e-07
3.55409e-07
5.67299e-07
8.26379e-07
1.02446e-06
1.13485e-06
1.15728e-06
1.06012e-06
8.99482e-07
6.94037e-07
4.19526e-07
1.85273e-07
4.21903e-08
1.00336e-08
3.6399e-10
8.21378e-09
2.36169e-08
7.44747e-08
2.79184e-07
8.87951e-07
2.11993e-06
3.93851e-06
5.43709e-06
6.72276e-06
7.31921e-06
7.52922e-06
7.16902e-06
6.31848e-06
5.03194e-06
3.61957e-06
2.04369e-06
8.15665e-07
1.38535e-07
2.00898e-08
1.22344e-09
2.74108e-08
9.62607e-08
3.81297e-07
1.70235e-06
4.50344e-06
8.08313e-06
1.12534e-05
1.39873e-05
1.61182e-05
1.72388e-05
1.78035e-05
1.7143e-05
1.58382e-05
1.37657e-05
1.06784e-05
6.94734e-06
2.75952e-06
3.85275e-07
2.96926e-08
3.1086e-09
7.84094e-08
3.20963e-07
1.36617e-06
4.5925e-06
8.92311e-06
1.33722e-05
1.73273e-05
2.04172e-05
2.21855e-05
2.30473e-05
2.46579e-05
2.4783e-05
2.4212e-05
2.15449e-05
1.71151e-05
1.16673e-05
5.80725e-06
8.06562e-07
3.84786e-08
5.66666e-09
1.64168e-07
6.86674e-07
2.70077e-06
7.75416e-06
1.23739e-05
1.75571e-05
2.05957e-05
1.97514e-05
1.94269e-05
1.94012e-05
2.06047e-05
2.31081e-05
2.53573e-05
2.6508e-05
2.38903e-05
1.6648e-05
8.94649e-06
1.43236e-06
4.60352e-08
7.52372e-09
2.50453e-07
1.04628e-06
4.11981e-06
9.9433e-06
1.46455e-05
1.8756e-05
1.81547e-05
1.58719e-05
1.50348e-05
1.48869e-05
1.6343e-05
1.95086e-05
2.31788e-05
2.62538e-05
2.59987e-05
1.99659e-05
1.09721e-05
2.09076e-06
5.19779e-08
7.39591e-09
3.04965e-07
1.3598e-06
5.21466e-06
1.10106e-05
1.4914e-05
1.75066e-05
1.53007e-05
1.32356e-05
1.25737e-05
1.25905e-05
1.43495e-05
1.77767e-05
2.22083e-05
2.64609e-05
2.74428e-05
2.31203e-05
1.31116e-05
2.73022e-06
5.66331e-08
6.58491e-09
3.20812e-07
1.44963e-06
5.64486e-06
1.09199e-05
1.41442e-05
1.5713e-05
1.39669e-05
1.22877e-05
1.1753e-05
1.19393e-05
1.38697e-05
1.73831e-05
2.20345e-05
2.6655e-05
2.8177e-05
2.33251e-05
1.42488e-05
3.22549e-06
6.04061e-08
4.76835e-09
2.95894e-07
1.47318e-06
5.49037e-06
1.038e-05
1.33579e-05
1.52493e-05
1.39233e-05
1.24476e-05
1.20633e-05
1.28472e-05
1.53626e-05
1.90992e-05
2.35645e-05
2.69024e-05
2.86336e-05
2.35855e-05
1.53924e-05
3.65038e-06
6.36915e-08
3.46522e-09
2.29431e-07
1.27664e-06
4.87418e-06
9.6709e-06
1.27631e-05
1.47473e-05
1.41152e-05
1.3232e-05
1.37117e-05
1.5612e-05
1.86326e-05
2.21008e-05
2.58691e-05
2.7858e-05
2.8741e-05
2.27823e-05
1.53627e-05
3.90803e-06
6.68245e-08
2.51335e-09
1.47206e-07
9.70361e-07
3.95714e-06
8.60895e-06
1.19757e-05
1.42994e-05
1.5508e-05
1.64075e-05
1.79465e-05
2.01283e-05
2.27013e-05
2.51519e-05
2.75851e-05
2.78948e-05
2.82777e-05
2.20619e-05
1.52908e-05
4.10955e-06
7.05092e-08
1.75696e-09
7.74447e-08
6.42862e-07
2.8683e-06
7.14054e-06
1.07317e-05
1.43338e-05
1.7188e-05
1.94094e-05
2.16425e-05
2.37256e-05
2.55837e-05
2.70142e-05
2.83249e-05
2.75924e-05
2.66588e-05
2.09465e-05
1.46042e-05
4.11686e-06
7.48716e-08
1.15765e-09
3.76887e-08
3.56921e-07
1.6955e-06
5.3965e-06
9.08653e-06
1.27666e-05
1.64733e-05
1.96338e-05
2.22609e-05
2.42379e-05
2.57244e-05
2.65123e-05
2.70399e-05
2.57819e-05
2.43715e-05
1.92069e-05
1.3775e-05
3.79978e-06
8.0936e-08
6.63168e-10
1.62168e-08
1.68232e-07
8.87458e-07
3.30729e-06
6.94152e-06
1.03531e-05
1.36514e-05
1.66364e-05
1.93035e-05
2.14294e-05
2.30726e-05
2.36477e-05
2.40472e-05
2.29614e-05
2.14721e-05
1.70913e-05
1.2237e-05
3.34772e-06
8.38639e-08
3.00193e-10
7.51045e-09
7.04974e-08
3.89634e-07
1.49284e-06
4.19725e-06
7.56991e-06
1.06393e-05
1.3268e-05
1.56662e-05
1.74248e-05
1.90491e-05
1.97677e-05
2.03055e-05
1.93252e-05
1.75577e-05
1.39773e-05
1.01214e-05
2.68288e-06
8.46937e-08
1.1754e-10
4.03526e-09
3.30781e-08
1.56286e-07
5.59296e-07
1.72246e-06
3.61445e-06
5.98065e-06
8.1223e-06
1.01951e-05
1.18865e-05
1.30447e-05
1.39697e-05
1.41049e-05
1.32304e-05
1.17655e-05
1.02143e-05
7.54245e-06
1.94782e-06
8.01327e-08
1.55426e-10
3.60112e-09
1.88189e-08
7.04356e-08
2.10681e-07
5.7268e-07
1.27653e-06
2.2885e-06
3.31186e-06
4.29474e-06
5.10254e-06
5.83518e-06
6.20565e-06
6.6221e-06
6.89575e-06
6.86104e-06
7.22879e-06
4.83353e-06
1.13765e-06
6.75979e-08
5.34901e-10
8.02738e-09
2.04084e-08
5.20258e-08
1.12025e-07
2.13774e-07
4.38409e-07
6.21395e-07
1.00639e-06
1.22025e-06
1.60632e-06
1.8655e-06
2.30404e-06
2.58397e-06
3.01503e-06
3.45734e-06
3.81286e-06
2.28667e-06
4.53228e-07
4.84718e-08
2.2579e-10
4.70838e-10
1.22609e-09
2.81262e-09
4.07839e-09
5.65761e-09
9.70623e-09
1.18423e-08
1.69223e-08
1.89933e-08
2.3594e-08
2.5493e-08
3.20422e-08
3.63451e-08
4.73338e-08
4.62209e-08
4.72864e-08
4.66335e-08
4.18876e-08
2.75784e-08
)
;

boundaryField
{
    movingWall
    {
        type            nutkWallFunction;
        Cmu             0.09;
        kappa           0.41;
        E               9.8;
        value           uniform 0;
    }
    fixedWalls
    {
        type            nutkWallFunction;
        Cmu             0.09;
        kappa           0.41;
        E               9.8;
        value           uniform 0;
    }
    frontAndBack
    {
        type            empty;
    }
}


// ************************************************************************* //
