/*--------------------------------*- C++ -*----------------------------------*\
| =========                 |                                                 |
| \\      /  F ield         | OpenFOAM: The Open Source CFD Toolbox           |
|  \\    /   O peration     | Version:  5.0                                   |
|   \\  /    A nd           | Web:      www.OpenFOAM.org                      |
|    \\/     M anipulation  |                                                 |
\*---------------------------------------------------------------------------*/
FoamFile
{
    version     2.0;
    format      ascii;
    class       volScalarField;
    location    "6";
    object      omega;
}
// * * * * * * * * * * * * * * * * * * * * * * * * * * * * * * * * * * * * * //

dimensions      [0 0 -1 0 0 0 0];

internalField   nonuniform List<scalar> 
400
(
128
128
128
128
128
128
128
128
128
128
128
128
128
128
128
128
128
128
128
128
128
47.9536
72.4942
81.4958
79.8549
67.4351
57.757
47.657
41.4842
36.3429
33.9514
33.0674
33.3195
36.1023
38.6084
43.7494
51.3919
64.626
90.0775
128
128
47.8222
55.4955
55.4679
43.6161
33.1245
27.4022
23.0917
21.1183
20.1674
19.8537
19.8517
20.8502
22.1217
24.7627
29.1426
37.3584
52.0609
82.3136
128
128
45.6257
44.8555
37.9294
25.9968
20.2619
16.4276
13.897
12.5881
11.7888
11.4529
11.3883
11.9174
12.9266
14.8634
18.4248
25.413
39.3986
71.6048
128
128
41.1496
36.1971
26.6037
17.6695
13.7286
10.6313
8.94538
7.90578
7.36338
7.1627
7.14721
7.66343
8.4791
10.1353
13.2396
19.5708
32.583
64.5505
128
128
37.1158
29.6037
19.9294
13.1116
10.0548
7.58604
6.39033
5.6352
5.30547
5.19911
5.23982
5.66202
6.28576
7.48435
9.76324
14.9727
26.5224
57.7984
128
128
33.5342
25.2769
15.8619
10.547
8.0361
6.04581
5.10998
4.59242
4.38755
4.33413
4.43153
4.76981
5.29076
6.24995
8.11879
12.7407
23.6256
54.0319
128
128
31.6167
22.0436
13.7437
9.21989
7.0013
5.31675
4.55377
4.17025
4.04469
4.02768
4.14474
4.42678
4.87055
5.63751
7.10139
10.7555
20.521
50.0923
128
128
29.5266
20.3979
12.5347
8.62696
6.65512
5.24236
4.55253
4.15181
4.00654
3.98579
4.09179
4.3467
4.74066
5.36563
6.64955
9.8118
19.0539
48.0192
128
128
29.7869
18.9455
12.3004
8.67618
6.71412
5.35006
4.69546
4.31056
4.17937
4.19162
4.26743
4.44052
4.72448
5.25843
6.45432
9.04059
17.4644
45.7638
128
128
32.0082
18.9424
12.4677
8.91625
6.93221
5.63776
5.04434
4.69756
4.53572
4.482
4.50066
4.59124
4.81994
5.23624
6.40791
8.73002
16.7425
44.2195
128
128
36.9716
19.4597
12.948
9.45415
7.3891
6.08426
5.40707
5.02795
4.81247
4.69877
4.66558
4.72522
4.93341
5.3769
6.47505
8.63955
16.3587
42.4891
128
128
46.0298
21.0818
13.7823
10.3262
8.10765
6.68117
5.87686
5.40119
5.11131
4.94937
4.91474
4.98678
5.22407
5.70757
6.81621
8.79401
16.25
41.2856
128
128
55.7342
24.6315
15.3427
11.4448
9.08894
7.46644
6.45807
5.87724
5.54289
5.36142
5.37249
5.46796
5.74097
6.24515
7.31701
9.26921
16.5108
40.9592
128
128
66.9875
30.4514
17.7906
12.9401
10.4044
8.71612
7.60008
6.87299
6.45011
6.20205
6.20809
6.29938
6.56984
7.06734
8.11355
10.0924
17.3858
41.6755
128
128
72.0697
38.5898
22.3831
15.3205
12.0153
10.0089
8.75173
7.96719
7.56431
7.30216
7.32319
7.4175
7.67684
8.17309
9.23699
11.3824
18.795
43.4733
128
128
68.3973
42.8739
28.8036
20.3416
15.4778
12.6503
10.9212
9.76535
9.17954
8.78524
8.7666
8.854
9.13466
9.70564
10.9755
13.5654
21.6861
47.987
128
128
55.0183
41.7286
32.2742
25.6104
20.8025
17.1297
14.7333
13.0542
12.0014
11.3412
10.9809
11.0288
11.3727
12.2544
14.4516
18.2342
28.4571
58.6533
128
128
42.3094
40.3899
35.8704
31.5953
28.3959
25.4843
23.7552
22.2874
22.022
22.2437
22.9964
24.5124
27.1604
30.5455
35.3707
41.9295
56.5629
89.42
128
128
128
128
128
128
128
128
128
128
128
128
128
128
128
128
128
128
128
128
128
)
;

boundaryField
{
    movingWall
    {
        Cmu             0.09;
        kappa           0.41;
        E               9.8;
        beta1           0.075;
        blended         false;
        type            omegaWallFunction;
        value           nonuniform List<scalar> 
20
(
128
128
128
128
128
128
128
128
128
128
128
128
128
128
128
128
128
128
128
128
)
;
    }
    fixedWalls
    {
        Cmu             0.09;
        kappa           0.41;
        E               9.8;
        beta1           0.075;
        blended         false;
        type            omegaWallFunction;
        value           nonuniform List<scalar> 
60
(
128
128
128
128
128
128
128
128
128
128
128
128
128
128
128
128
128
128
128
128
128
128
128
128
128
128
128
128
128
128
128
128
128
128
128
128
128
128
128
128
128
128
128
128
128
128
128
128
128
128
128
128
128
128
128
128
128
128
128
128
)
;
    }
    frontAndBack
    {
        type            empty;
    }
}


// ************************************************************************* //
