/*--------------------------------*- C++ -*----------------------------------*\
| =========                 |                                                 |
| \\      /  F ield         | OpenFOAM: The Open Source CFD Toolbox           |
|  \\    /   O peration     | Version:  5.0                                   |
|   \\  /    A nd           | Web:      www.OpenFOAM.org                      |
|    \\/     M anipulation  |                                                 |
\*---------------------------------------------------------------------------*/
FoamFile
{
    version     2.0;
    format      ascii;
    class       volScalarField;
    location    "6";
    object      p;
}
// * * * * * * * * * * * * * * * * * * * * * * * * * * * * * * * * * * * * * //

dimensions      [0 2 -2 0 0 0 0];

internalField   nonuniform List<scalar> 
400
(
6.89422e-08
-6.99893e-05
-0.000182155
-0.000151645
-0.000535486
-0.00183613
-0.00363652
-0.00533902
-0.00671565
-0.00764302
-0.00810017
-0.00805165
-0.00749336
-0.00630985
-0.00435811
-0.00156301
0.00202157
0.00596571
0.00897972
0.0102252
2.4309e-05
-3.94477e-05
-0.000139503
-0.000558669
-0.00152915
-0.00301872
-0.00465927
-0.00623953
-0.00750523
-0.00834546
-0.00874082
-0.00869147
-0.00820148
-0.00719688
-0.00556547
-0.00320196
-7.92858e-05
0.00361689
0.0069787
0.00888559
0.000231272
-2.20538e-05
-0.000591933
-0.00161905
-0.00310095
-0.00474922
-0.0063798
-0.00786446
-0.00893547
-0.00960074
-0.00985394
-0.00971872
-0.00920023
-0.00831703
-0.00703174
-0.00525567
-0.00286385
0.00017223
0.00343719
0.00566881
0.000218396
-0.000338489
-0.00146833
-0.00310698
-0.00493383
-0.00666154
-0.00814665
-0.00927934
-0.0100715
-0.0105278
-0.0106465
-0.0104571
-0.0099824
-0.00923526
-0.0082201
-0.00691141
-0.00519952
-0.00293915
-0.000247701
0.00188129
-0.000388274
-0.00117747
-0.00276396
-0.00474882
-0.00664485
-0.00823388
-0.00948571
-0.0104062
-0.0110347
-0.0113713
-0.011422
-0.0112086
-0.0107548
-0.0100935
-0.00924978
-0.0082342
-0.00701419
-0.00540878
-0.00352618
-0.00160366
-0.00160065
-0.00249656
-0.00427766
-0.00629339
-0.00807711
-0.00947113
-0.0105386
-0.0113299
-0.0118611
-0.0121254
-0.0121316
-0.0119062
-0.0114794
-0.0108882
-0.0101642
-0.00933748
-0.00844196
-0.00729269
-0.0060459
-0.00446301
-0.00311082
-0.00401408
-0.00575398
-0.00763989
-0.00924436
-0.0104545
-0.0113957
-0.0120975
-0.012562
-0.0127792
-0.0127573
-0.0125224
-0.0121154
-0.0115784
-0.0109462
-0.0102401
-0.00955645
-0.0086876
-0.00791324
-0.00663928
-0.00455928
-0.00539157
-0.00698605
-0.00871762
-0.0101536
-0.0112164
-0.0120648
-0.0126974
-0.0131086
-0.0132888
-0.0132475
-0.0130107
-0.0126232
-0.0121303
-0.0115697
-0.0109398
-0.0103997
-0.00967662
-0.00921887
-0.00819953
-0.00566468
-0.00642167
-0.00787635
-0.00948659
-0.0107898
-0.0117459
-0.0125217
-0.0130959
-0.0134613
-0.0136119
-0.0135595
-0.0133309
-0.0129687
-0.0125142
-0.0120122
-0.0114193
-0.0109948
-0.0103011
-0.0100957
-0.00923104
-0.00632863
-0.0070189
-0.00837592
-0.00990579
-0.0111284
-0.0120218
-0.0127467
-0.0132765
-0.013608
-0.0137415
-0.01369
-0.0134789
-0.0131467
-0.0127208
-0.0122713
-0.0116624
-0.0113729
-0.0105701
-0.0106231
-0.00980649
-0.00650793
-0.0071791
-0.00845761
-0.00996117
-0.0111635
-0.0120504
-0.0127519
-0.0132587
-0.0135761
-0.0137081
-0.0136678
-0.0134779
-0.0131701
-0.0127534
-0.0123441
-0.0116659
-0.0115072
-0.0104849
-0.0108616
-0.0099283
-0.00620494
-0.00690889
-0.00815748
-0.00965941
-0.0109053
-0.0118372
-0.0125519
-0.0130683
-0.0133976
-0.0135451
-0.0135222
-0.013348
-0.0130483
-0.0126372
-0.0121817
-0.0115036
-0.0113019
-0.0101238
-0.0107693
-0.00958605
-0.00556805
-0.00631408
-0.00755368
-0.00901825
-0.0103697
-0.0113868
-0.0121584
-0.012721
-0.0130879
-0.0132646
-0.0132623
-0.0130947
-0.0127868
-0.0123488
-0.0118231
-0.0111325
-0.0107571
-0.0095292
-0.0102878
-0.00875055
-0.00483931
-0.00558235
-0.00674583
-0.00809143
-0.00951663
-0.0106592
-0.0115429
-0.0121966
-0.0126324
-0.0128563
-0.0128803
-0.0127146
-0.0123828
-0.0118904
-0.0112783
-0.0105216
-0.00991233
-0.00870063
-0.00939264
-0.00744796
-0.0043277
-0.00490029
-0.00583803
-0.00697099
-0.00832321
-0.00960553
-0.0106633
-0.011467
-0.0120146
-0.0123113
-0.0123731
-0.0122073
-0.0118385
-0.0112698
-0.0105471
-0.00966607
-0.00880861
-0.00762328
-0.00812839
-0.00571512
-0.00424337
-0.00440897
-0.00487107
-0.00565412
-0.00682825
-0.00820532
-0.00946637
-0.0104724
-0.0111866
-0.0115994
-0.0117254
-0.0115702
-0.0111632
-0.0105075
-0.00965374
-0.00860941
-0.00752417
-0.00632902
-0.00652086
-0.00356258
-0.00427252
-0.00407454
-0.00385986
-0.00418305
-0.00513983
-0.00653262
-0.00797204
-0.0092034
-0.0101341
-0.0107157
-0.0109528
-0.0108476
-0.0104232
-0.00968714
-0.00869337
-0.0074621
-0.00615905
-0.00485427
-0.00455852
-0.000808097
-0.00405408
-0.00351134
-0.00270824
-0.00261436
-0.00340051
-0.00479064
-0.00637145
-0.00779166
-0.00892094
-0.00968035
-0.0100522
-0.0100272
-0.00963214
-0.00887298
-0.00778425
-0.00639865
-0.00483996
-0.00319321
-0.00179264
0.00402539
-0.00350747
-0.00274278
-0.00163741
-0.00136265
-0.00206529
-0.00343413
-0.0050979
-0.00668053
-0.00798426
-0.0089056
-0.00940538
-0.00947563
-0.00912163
-0.00834693
-0.00719528
-0.00566352
-0.00376334
-0.00102828
0.00413438
0.016546
-0.00505441
-0.0019874
-0.000637462
-0.000551651
-0.00123446
-0.00258846
-0.00427886
-0.00599974
-0.00743615
-0.00848428
-0.00907278
-0.00921859
-0.00891297
-0.00817449
-0.00694741
-0.00519012
-0.00216868
0.0043139
0.0180153
0.0403508
)
;

boundaryField
{
    movingWall
    {
        type            zeroGradient;
    }
    fixedWalls
    {
        type            zeroGradient;
    }
    frontAndBack
    {
        type            empty;
    }
}


// ************************************************************************* //
