/*--------------------------------*- C++ -*----------------------------------*\
| =========                 |                                                 |
| \\      /  F ield         | OpenFOAM: The Open Source CFD Toolbox           |
|  \\    /   O peration     | Version:  5.0                                   |
|   \\  /    A nd           | Web:      www.OpenFOAM.org                      |
|    \\/     M anipulation  |                                                 |
\*---------------------------------------------------------------------------*/
FoamFile
{
    version     2.0;
    format      ascii;
    class       surfaceScalarField;
    location    "6";
    object      phi;
}
// * * * * * * * * * * * * * * * * * * * * * * * * * * * * * * * * * * * * * //

dimensions      [0 3 -1 0 0 0 0];

internalField   nonuniform List<scalar> 
760
(
2.16296e-07
-2.16303e-07
1.42182e-07
7.41135e-08
-3.66512e-07
5.08694e-07
-1.60613e-06
1.23961e-06
-3.27489e-06
1.66877e-06
-4.75567e-06
1.48078e-06
-5.9746e-06
1.21893e-06
-6.88146e-06
9.06856e-07
-7.55324e-06
6.71788e-07
-8.01289e-06
4.59651e-07
-8.2749e-06
2.62008e-07
-8.37674e-06
1.01838e-07
-8.31285e-06
-6.38907e-08
-8.0708e-06
-2.4205e-07
-7.63152e-06
-4.39276e-07
-6.8671e-06
-7.6442e-07
-5.6757e-06
-1.1914e-06
-3.89085e-06
-1.78485e-06
-1.63864e-06
-2.25222e-06
-1.63864e-06
-1.59158e-07
-5.7145e-08
-9.22228e-07
8.37183e-07
-2.42987e-06
2.01634e-06
-4.1199e-06
2.92964e-06
-5.29789e-06
2.84675e-06
-6.25579e-06
2.43868e-06
-7.0108e-06
1.97394e-06
-7.60515e-06
1.5012e-06
-8.03828e-06
1.10492e-06
-8.27366e-06
6.95035e-07
-8.37909e-06
3.67435e-07
-8.28545e-06
8.19905e-09
-8.11543e-06
-2.33913e-07
-7.82216e-06
-5.35319e-07
-7.37642e-06
-8.85017e-07
-6.73461e-06
-1.40623e-06
-5.76814e-06
-2.15787e-06
-4.31535e-06
-3.23764e-06
-2.25661e-06
-4.31095e-06
-3.89525e-06
-8.11569e-07
7.54424e-07
-2.19928e-06
2.2249e-06
-3.70274e-06
3.5198e-06
-4.74635e-06
3.97325e-06
-5.50051e-06
3.60091e-06
-6.07281e-06
3.01098e-06
-6.40685e-06
2.30799e-06
-6.58707e-06
1.68141e-06
-6.57828e-06
1.09613e-06
-6.51779e-06
6.34544e-07
-6.402e-06
2.51651e-07
-6.29392e-06
-9.98814e-08
-6.08361e-06
-4.44222e-07
-5.81488e-06
-8.04049e-07
-5.46964e-06
-1.23026e-06
-5.04156e-06
-1.83432e-06
-4.48769e-06
-2.71174e-06
-3.61004e-06
-4.11529e-06
-2.14568e-06
-5.77531e-06
-6.04093e-06
-1.184e-06
1.93842e-06
-2.62609e-06
3.66699e-06
-3.74878e-06
4.64249e-06
-4.45035e-06
4.67482e-06
-4.8479e-06
3.99846e-06
-4.99899e-06
3.16207e-06
-5.02585e-06
2.33484e-06
-5.01793e-06
1.67349e-06
-5.01432e-06
1.09252e-06
-4.97429e-06
5.94515e-07
-4.86863e-06
1.45987e-07
-4.70056e-06
-2.67943e-07
-4.48627e-06
-6.58519e-07
-4.21452e-06
-1.07579e-06
-3.88883e-06
-1.55595e-06
-3.53768e-06
-2.18547e-06
-3.15197e-06
-3.09745e-06
-2.62451e-06
-4.64276e-06
-1.66082e-06
-6.739e-06
-7.70174e-06
-1.24537e-06
3.18379e-06
-2.43884e-06
4.86047e-06
-3.22672e-06
5.43037e-06
-3.67039e-06
5.11849e-06
-3.82865e-06
4.15672e-06
-3.89134e-06
3.22476e-06
-3.95217e-06
2.39567e-06
-3.99791e-06
1.71923e-06
-4.01527e-06
1.10989e-06
-3.98043e-06
5.59674e-07
-3.87613e-06
4.16814e-08
-3.70572e-06
-4.38345e-07
-3.47471e-06
-8.89533e-07
-3.19315e-06
-1.35736e-06
-2.87178e-06
-1.87731e-06
-2.53132e-06
-2.52594e-06
-2.22483e-06
-3.40394e-06
-1.94043e-06
-4.92715e-06
-1.28992e-06
-7.38951e-06
-8.99166e-06
-1.06156e-06
4.24535e-06
-1.94411e-06
5.74302e-06
-2.51888e-06
6.00514e-06
-2.81675e-06
5.41636e-06
-2.93479e-06
4.27475e-06
-3.0169e-06
3.30688e-06
-3.10758e-06
2.48636e-06
-3.17873e-06
1.79038e-06
-3.20614e-06
1.1373e-06
-3.17296e-06
5.26495e-07
-3.07011e-06
-6.11711e-08
-2.91017e-06
-5.98285e-07
-2.69651e-06
-1.10319e-06
-2.43974e-06
-1.61414e-06
-2.1481e-06
-2.16895e-06
-1.82543e-06
-2.84861e-06
-1.51919e-06
-3.71018e-06
-1.24002e-06
-5.20632e-06
-9.66698e-07
-7.66284e-06
-9.95836e-06
-7.79737e-07
5.02509e-06
-1.40122e-06
6.3645e-06
-1.81941e-06
6.42333e-06
-2.02937e-06
5.62632e-06
-2.14929e-06
4.39466e-06
-2.25176e-06
3.40935e-06
-2.35101e-06
2.5856e-06
-2.41908e-06
1.85845e-06
-2.44323e-06
1.16146e-06
-2.41403e-06
4.97286e-07
-2.33494e-06
-1.40254e-07
-2.20767e-06
-7.25555e-07
-2.03984e-06
-1.27102e-06
-1.837e-06
-1.81698e-06
-1.60149e-06
-2.40445e-06
-1.33812e-06
-3.11199e-06
-1.09629e-06
-3.95201e-06
-9.05785e-07
-5.39682e-06
-7.20302e-07
-7.84832e-06
-1.06787e-05
-4.68958e-07
5.49404e-06
-8.75016e-07
6.77056e-06
-1.16428e-06
6.7126e-06
-1.32988e-06
5.79192e-06
-1.44295e-06
4.50773e-06
-1.53358e-06
3.49998e-06
-1.61294e-06
2.66497e-06
-1.66238e-06
1.90789e-06
-1.6779e-06
1.17698e-06
-1.65835e-06
4.77737e-07
-1.61402e-06
-1.8459e-07
-1.53687e-06
-8.02699e-07
-1.43271e-06
-1.37519e-06
-1.30068e-06
-1.949e-06
-1.1344e-06
-2.57074e-06
-9.32814e-07
-3.31357e-06
-7.30049e-07
-4.15477e-06
-5.88477e-07
-5.53839e-06
-5.38447e-07
-7.89835e-06
-1.12171e-05
-1.93657e-07
5.6877e-06
-4.12259e-07
6.98916e-06
-5.82484e-07
6.88282e-06
-6.93957e-07
5.90339e-06
-7.82132e-07
4.59591e-06
-8.4636e-07
3.5642e-06
-8.96176e-07
2.71478e-06
-9.22463e-07
1.93417e-06
-9.31709e-07
1.18623e-06
-9.29792e-07
4.7582e-07
-9.23344e-07
-1.91039e-07
-9.06149e-07
-8.19894e-07
-8.72692e-07
-1.40865e-06
-8.12498e-07
-2.0092e-06
-7.30029e-07
-2.6532e-06
-6.09542e-07
-3.43406e-06
-4.89463e-07
-4.27485e-06
-4.14706e-07
-5.61315e-06
-3.93277e-07
-7.91978e-06
-1.16104e-05
7.95594e-08
5.60814e-06
1.63779e-08
7.05234e-06
-3.75298e-08
6.93673e-06
-1.07489e-07
5.97335e-06
-1.60465e-07
4.64888e-06
-2.07648e-07
3.61139e-06
-2.30462e-07
2.7376e-06
-2.39972e-07
1.94368e-06
-2.50049e-07
1.1963e-06
-2.67056e-07
4.92827e-07
-2.95414e-07
-1.6268e-07
-3.30952e-07
-7.84355e-07
-3.58384e-07
-1.38121e-06
-3.65924e-07
-2.00165e-06
-3.46396e-07
-2.67273e-06
-3.04771e-07
-3.47568e-06
-2.37843e-07
-4.34178e-06
-2.28458e-07
-5.62253e-06
-3.09296e-07
-7.83894e-06
-1.19197e-05
3.4157e-07
5.26657e-06
4.78488e-07
6.91542e-06
5.40554e-07
6.87466e-06
4.78826e-07
6.03508e-06
4.15931e-07
4.71178e-06
3.82262e-07
3.64506e-06
3.71372e-07
2.74849e-06
3.64928e-07
1.95013e-06
3.47114e-07
1.21412e-06
3.10325e-07
5.29615e-07
2.54811e-07
-1.07166e-07
1.8584e-07
-7.15384e-07
1.19135e-07
-1.31451e-06
5.02352e-08
-1.93275e-06
4.05088e-08
-2.66301e-06
-5.16766e-08
-3.3835e-06
5.81177e-09
-4.39927e-06
-1.1401e-07
-5.50271e-06
-2.26465e-07
-7.72649e-06
-1.21461e-05
5.83104e-07
4.68347e-06
9.07698e-07
6.59083e-06
1.10198e-06
6.68038e-06
1.06952e-06
6.06754e-06
9.88895e-07
4.79241e-06
9.5432e-07
3.67963e-06
9.4375e-07
2.75906e-06
9.33954e-07
1.95992e-06
9.07006e-07
1.24106e-06
8.55925e-07
5.80696e-07
7.833e-07
-3.45408e-08
6.92999e-07
-6.25083e-07
5.94943e-07
-1.21645e-06
5.06237e-07
-1.84405e-06
3.99107e-07
-2.55588e-06
2.97087e-07
-3.28148e-06
2.03732e-07
-4.30591e-06
-4.14684e-09
-5.29483e-06
-1.76388e-07
-7.55424e-06
-1.23225e-05
8.4609e-07
3.83738e-06
1.30616e-06
6.13076e-06
1.60854e-06
6.378e-06
1.69299e-06
5.98309e-06
1.60444e-06
4.88096e-06
1.56177e-06
3.7223e-06
1.54492e-06
2.7759e-06
1.52885e-06
1.97599e-06
1.49518e-06
1.27473e-06
1.43667e-06
6.39214e-07
1.35207e-06
5.00551e-08
1.24618e-06
-5.19194e-07
1.12196e-06
-1.09223e-06
9.85877e-07
-1.70796e-06
8.14757e-07
-2.38476e-06
6.53774e-07
-3.1205e-06
4.19977e-07
-4.07211e-06
1.34236e-07
-5.00909e-06
-5.56383e-08
-7.36437e-06
-1.23782e-05
1.05692e-06
2.78045e-06
1.69447e-06
5.49321e-06
2.07816e-06
5.99431e-06
2.29534e-06
5.7659e-06
2.28188e-06
4.89443e-06
2.24105e-06
3.76314e-06
2.21698e-06
2.79997e-06
2.19602e-06
1.99694e-06
2.15992e-06
1.31084e-06
2.09873e-06
7.00397e-07
2.006e-06
1.42791e-07
1.88327e-06
-3.96464e-07
1.72812e-06
-9.37085e-07
1.54225e-06
-1.52209e-06
1.31094e-06
-2.15344e-06
1.06831e-06
-2.87787e-06
7.13376e-07
-3.71718e-06
3.37067e-07
-4.63278e-06
5.89834e-08
-7.08629e-06
-1.23192e-05
1.22234e-06
1.55812e-06
1.94386e-06
4.77169e-06
2.43825e-06
5.49992e-06
2.85277e-06
5.35138e-06
3.01554e-06
4.73166e-06
3.03861e-06
3.74007e-06
3.02703e-06
2.81155e-06
3.00551e-06
2.01847e-06
2.96551e-06
1.35084e-06
2.89798e-06
7.67923e-07
2.79131e-06
2.4947e-07
2.64492e-06
-2.50074e-07
2.4506e-06
-7.42774e-07
2.21076e-06
-1.28225e-06
1.90403e-06
-1.84671e-06
1.55405e-06
-2.5279e-06
1.06376e-06
-3.22688e-06
5.44394e-07
-4.11342e-06
1.95591e-07
-6.73748e-06
-1.21236e-05
9.99146e-07
5.58973e-07
1.9559e-06
3.81494e-06
2.63868e-06
4.81713e-06
3.24198e-06
4.74808e-06
3.66099e-06
4.31265e-06
3.86339e-06
3.53767e-06
3.94427e-06
2.73067e-06
3.96462e-06
1.99811e-06
3.93911e-06
1.37635e-06
3.87038e-06
8.36653e-07
3.74745e-06
3.72399e-07
3.57437e-06
-7.69969e-08
3.33138e-06
-4.99781e-07
3.02621e-06
-9.77076e-07
2.62285e-06
-1.44335e-06
2.14313e-06
-2.04818e-06
1.50023e-06
-2.58398e-06
8.34188e-07
-3.44737e-06
4.08223e-07
-6.31152e-06
-1.17154e-05
4.47073e-07
1.119e-07
1.53055e-06
2.73146e-06
2.52476e-06
3.82293e-06
3.3913e-06
3.88154e-06
4.08903e-06
3.61492e-06
4.56448e-06
3.06222e-06
4.8528e-06
2.44235e-06
5.00768e-06
1.84323e-06
5.05208e-06
1.33195e-06
5.01925e-06
8.69487e-07
4.8981e-06
4.93544e-07
4.69225e-06
1.28855e-07
4.38598e-06
-1.9351e-07
3.99361e-06
-5.847e-07
3.45904e-06
-9.08793e-07
2.80808e-06
-1.39721e-06
2.00087e-06
-1.77677e-06
1.21609e-06
-2.6626e-06
7.46859e-07
-5.84228e-06
-1.09685e-05
-3.01994e-07
4.13894e-07
8.17934e-07
1.61153e-06
1.95855e-06
2.68231e-06
3.11497e-06
2.72511e-06
4.09648e-06
2.63341e-06
4.86804e-06
2.29067e-06
5.41588e-06
1.89451e-06
5.78903e-06
1.47008e-06
5.97997e-06
1.14101e-06
6.04321e-06
8.06244e-07
5.95984e-06
5.76917e-07
5.78101e-06
3.0768e-07
5.45739e-06
1.30112e-07
4.99997e-06
-1.27278e-07
4.38896e-06
-2.97787e-07
3.60136e-06
-6.09612e-07
2.66957e-06
-8.44985e-07
1.89637e-06
-1.88939e-06
1.30115e-06
-5.24706e-06
-9.66737e-06
-1.24393e-06
1.65782e-06
-5.0358e-07
8.71184e-07
9.50034e-07
1.2287e-06
2.36958e-06
1.30556e-06
3.63908e-06
1.36391e-06
4.69345e-06
1.2363e-06
5.47958e-06
1.10837e-06
6.05364e-06
8.96021e-07
6.41572e-06
7.78937e-07
6.61876e-06
6.032e-07
6.65607e-06
5.39612e-07
6.56397e-06
3.99776e-07
6.32927e-06
3.64814e-07
5.96469e-06
2.37302e-07
5.47747e-06
1.89437e-07
4.87141e-06
-3.55115e-09
4.27344e-06
-2.47015e-07
3.71801e-06
-1.33396e-06
2.54803e-06
-4.07709e-06
-7.11934e-06
1.65782e-06
2.52901e-06
3.75771e-06
5.06327e-06
6.42718e-06
7.66348e-06
8.77185e-06
9.66788e-06
1.04468e-05
1.105e-05
1.15896e-05
1.19894e-05
1.23542e-05
1.25915e-05
1.2781e-05
1.27774e-05
1.25304e-05
1.11964e-05
7.11934e-06
)
;

boundaryField
{
    movingWall
    {
        type            calculated;
        value           uniform 0;
    }
    fixedWalls
    {
        type            calculated;
        value           uniform 0;
    }
    frontAndBack
    {
        type            empty;
        value           nonuniform 0();
    }
}


// ************************************************************************* //
