/*--------------------------------*- C++ -*----------------------------------*\
| =========                 |                                                 |
| \\      /  F ield         | OpenFOAM: The Open Source CFD Toolbox           |
|  \\    /   O peration     | Version:  5.0                                   |
|   \\  /    A nd           | Web:      www.OpenFOAM.org                      |
|    \\/     M anipulation  |                                                 |
\*---------------------------------------------------------------------------*/
FoamFile
{
    version     2.0;
    format      ascii;
    class       volVectorField;
    location    "6";
    object      U;
}
// * * * * * * * * * * * * * * * * * * * * * * * * * * * * * * * * * * * * * //

dimensions      [0 1 -1 0 0 0 0];

internalField   nonuniform List<vector> 
400
(
(0.00238509 -0.00307241 0)
(0.00596791 -0.00150048 0)
(-0.000963484 0.00121071 0)
(-0.0118034 0.00722984 0)
(-0.0487049 0.0172011 0)
(-0.086764 0.0155071 0)
(-0.110174 0.0129683 0)
(-0.133066 0.0116204 0)
(-0.145272 0.0085417 0)
(-0.157645 0.00751789 0)
(-0.163434 0.00477409 0)
(-0.16747 0.0041382 0)
(-0.168711 0.00200009 0)
(-0.166136 -0.00041677 0)
(-0.158543 -0.00287207 0)
(-0.144995 -0.00722048 0)
(-0.123444 -0.0123515 0)
(-0.0929433 -0.0181813 0)
(-0.0554632 -0.0192332 0)
(-0.0138719 -0.00555968 0)
(0.000613441 -0.00634458 0)
(-0.0072498 0.00469692 0)
(-0.02758 0.0213266 0)
(-0.0667034 0.0446636 0)
(-0.0981603 0.0461435 0)
(-0.119096 0.0396347 0)
(-0.134685 0.0333105 0)
(-0.14907 0.0230906 0)
(-0.157418 0.0170947 0)
(-0.164652 0.00980957 0)
(-0.166882 0.0048938 0)
(-0.168262 -0.000678805 0)
(-0.165275 -0.00524651 0)
(-0.161972 -0.0109996 0)
(-0.153436 -0.0175013 0)
(-0.142208 -0.0275332 0)
(-0.123428 -0.0408288 0)
(-0.0983519 -0.0594428 0)
(-0.0652597 -0.0749885 0)
(-0.0208881 -0.0561283 0)
(-0.00500761 0.00472544 0)
(-0.0265512 0.0309222 0)
(-0.0593266 0.0581862 0)
(-0.0881317 0.0693315 0)
(-0.106111 0.063931 0)
(-0.117438 0.0542151 0)
(-0.127261 0.0416994 0)
(-0.132181 0.0323475 0)
(-0.131507 0.0230246 0)
(-0.131899 0.0147473 0)
(-0.128717 0.00750582 0)
(-0.12715 0.000672492 0)
(-0.124003 -0.00560056 0)
(-0.119951 -0.012452 0)
(-0.114437 -0.0207902 0)
(-0.106746 -0.0332038 0)
(-0.0958399 -0.0520082 0)
(-0.0784556 -0.0790052 0)
(-0.0570268 -0.107709 0)
(-0.0220268 -0.108995 0)
(-0.0084668 0.0276704 0)
(-0.038197 0.0605567 0)
(-0.0679185 0.0828735 0)
(-0.0860303 0.0857159 0)
(-0.0962214 0.0754319 0)
(-0.100446 0.0615142 0)
(-0.101361 0.0470608 0)
(-0.099483 0.0337905 0)
(-0.101151 0.0220245 0)
(-0.0997814 0.0121477 0)
(-0.0987408 0.00369757 0)
(-0.095656 -0.00391611 0)
(-0.0919981 -0.0109635 0)
(-0.0870749 -0.018463 0)
(-0.0817282 -0.0270772 0)
(-0.075529 -0.0390979 0)
(-0.0682622 -0.0578404 0)
(-0.0559313 -0.0897499 0)
(-0.0428555 -0.129417 0)
(-0.0172159 -0.14091 0)
(-0.0088265 0.0505204 0)
(-0.0405114 0.085107 0)
(-0.0606849 0.0997721 0)
(-0.0732773 0.0972852 0)
(-0.0769592 0.0815651 0)
(-0.077164 0.0645503 0)
(-0.0780062 0.04809 0)
(-0.079164 0.0342785 0)
(-0.080735 0.0221542 0)
(-0.0800645 0.0114372 0)
(-0.078944 0.00181761 0)
(-0.0757755 -0.00730384 0)
(-0.0718464 -0.0158909 0)
(-0.0665423 -0.0248148 0)
(-0.0607809 -0.0346345 0)
(-0.0544809 -0.0468933 0)
(-0.048929 -0.0641197 0)
(-0.038543 -0.094884 0)
(-0.036699 -0.144459 0)
(-0.00835113 -0.17139 0)
(-0.00797967 0.073176 0)
(-0.034547 0.105615 0)
(-0.0474985 0.113711 0)
(-0.0574865 0.104956 0)
(-0.0576955 0.0846116 0)
(-0.0585291 0.06582 0)
(-0.0609187 0.0490839 0)
(-0.0629409 0.0352049 0)
(-0.0643824 0.0223907 0)
(-0.0640411 0.0107006 0)
(-0.0626728 -0.00026053 0)
(-0.0597178 -0.0105949 0)
(-0.0559989 -0.0202519 0)
(-0.0511929 -0.0301105 0)
(-0.045809 -0.0408804 0)
(-0.0395279 -0.0540119 0)
(-0.0353273 -0.0709169 0)
(-0.0238079 -0.100455 0)
(-0.0277465 -0.149512 0)
(-0.00527418 -0.189632 0)
(-0.00622732 0.0921662 0)
(-0.0257161 0.119834 0)
(-0.0342529 0.123122 0)
(-0.0420263 0.109773 0)
(-0.0409811 0.0866563 0)
(-0.0432037 0.0672435 0)
(-0.0459906 0.0506751 0)
(-0.0478838 0.036311 0)
(-0.0491253 0.0226691 0)
(-0.0488333 0.00984285 0)
(-0.0476183 -0.0024168 0)
(-0.0452287 -0.0139062 0)
(-0.042298 -0.0244913 0)
(-0.0385764 -0.035044 0)
(-0.0344484 -0.0463844 0)
(-0.0285247 -0.0601428 0)
(-0.0267349 -0.076852 0)
(-0.0150709 -0.106267 0)
(-0.023983 -0.155776 0)
(-0.000140386 -0.20743 0)
(-0.00293034 0.104727 0)
(-0.0164839 0.13125 0)
(-0.0216325 0.131548 0)
(-0.0278849 0.114222 0)
(-0.0265769 0.089133 0)
(-0.0293724 0.069277 0)
(-0.0315807 0.0525694 0)
(-0.0329199 0.0376408 0)
(-0.0337995 0.0232863 0)
(-0.0335117 0.00958071 0)
(-0.0327528 -0.00348349 0)
(-0.0312318 -0.0156537 0)
(-0.0294935 -0.0269319 0)
(-0.0271072 -0.0381795 0)
(-0.0247882 -0.0502207 0)
(-0.0192362 -0.0646854 0)
(-0.0198599 -0.0808833 0)
(-0.00709377 -0.108756 0)
(-0.0192064 -0.156672 0)
(0.00148778 -0.217783 0)
(-0.000340125 0.112841 0)
(-0.00783516 0.13746 0)
(-0.0106768 0.135733 0)
(-0.0148239 0.11662 0)
(-0.0136274 0.0908793 0)
(-0.0162544 0.0706755 0)
(-0.0176159 0.0539717 0)
(-0.0182633 0.0386534 0)
(-0.0187644 0.023852 0)
(-0.0186013 0.00962762 0)
(-0.0184469 -0.00383354 0)
(-0.0179925 -0.0163293 0)
(-0.0176646 -0.0280139 0)
(-0.0166032 -0.0398297 0)
(-0.0163701 -0.052563 0)
(-0.0112844 -0.0679725 0)
(-0.0150717 -0.0847237 0)
(-0.00200586 -0.112318 0)
(-0.0173843 -0.158434 0)
(0.00487205 -0.228949 0)
(0.00339028 0.113905 0)
(-0.000360614 0.14188 0)
(0.000604958 0.139416 0)
(-0.0026864 0.119457 0)
(-0.00181497 0.0929487 0)
(-0.00394954 0.0722422 0)
(-0.00453705 0.0550128 0)
(-0.00468343 0.0392295 0)
(-0.0049446 0.0241923 0)
(-0.00500701 0.00988313 0)
(-0.00547756 -0.00351486 0)
(-0.00601129 -0.015971 0)
(-0.00692043 -0.0278754 0)
(-0.00687339 -0.0401454 0)
(-0.00854398 -0.0534804 0)
(-0.00371143 -0.0691571 0)
(-0.0105492 -0.0865908 0)
(0.00347055 -0.111858 0)
(-0.0152976 -0.157659 0)
(0.00600298 -0.234965 0)
(0.00618179 0.110604 0)
(0.00699382 0.141115 0)
(0.0103755 0.139027 0)
(0.00902708 0.119699 0)
(0.00971152 0.0936172 0)
(0.00786407 0.0722799 0)
(0.00752396 0.0547484 0)
(0.00747242 0.0389742 0)
(0.0071892 0.0241955 0)
(0.00677897 0.0102826 0)
(0.00581652 -0.00272559 0)
(0.00465817 -0.0149734 0)
(0.0029538 -0.0269774 0)
(0.00230111 -0.0394714 0)
(-0.00081772 -0.053626 0)
(0.00323158 -0.0688633 0)
(-0.00645334 -0.0883616 0)
(0.0077924 -0.111527 0)
(-0.0147976 -0.156518 0)
(0.00885623 -0.241697 0)
(0.00839821 0.102315 0)
(0.0137058 0.137992 0)
(0.020531 0.137506 0)
(0.0206518 0.122325 0)
(0.0211189 0.095085 0)
(0.0195631 0.0735052 0)
(0.0190799 0.0553136 0)
(0.0189237 0.0392428 0)
(0.0185435 0.0246103 0)
(0.01786 0.0110993 0)
(0.016574 -0.00146123 0)
(0.0150449 -0.0134656 0)
(0.0129069 -0.0254039 0)
(0.0115033 -0.0379281 0)
(0.00769806 -0.05237 0)
(0.0104052 -0.0670232 0)
(-0.0013078 -0.0872698 0)
(0.0127472 -0.107725 0)
(-0.0147087 -0.15359 0)
(0.0108666 -0.244663 0)
(0.0117893 0.0886924 0)
(0.020155 0.129543 0)
(0.0297937 0.131434 0)
(0.0320907 0.121369 0)
(0.0334322 0.0956813 0)
(0.0319684 0.0728315 0)
(0.0312088 0.054486 0)
(0.0308902 0.0387794 0)
(0.030395 0.0247844 0)
(0.0295626 0.0119693 0)
(0.0280673 2.07509e-05 0)
(0.0263275 -0.0115733 0)
(0.023693 -0.0232372 0)
(0.0217135 -0.0357253 0)
(0.0170202 -0.0496957 0)
(0.0179197 -0.064535 0)
(0.00466055 -0.0842474 0)
(0.0168336 -0.10382 0)
(-0.0148082 -0.149042 0)
(0.0146365 -0.247227 0)
(0.0137819 0.0688592 0)
(0.0261081 0.119459 0)
(0.0392658 0.125382 0)
(0.042753 0.119122 0)
(0.045942 0.0993943 0)
(0.0455125 0.0752918 0)
(0.0447087 0.0558855 0)
(0.0442737 0.039822 0)
(0.043716 0.0259375 0)
(0.0428745 0.0134471 0)
(0.0412131 0.00193734 0)
(0.0393606 -0.00922007 0)
(0.0360844 -0.020414 0)
(0.0336106 -0.0324662 0)
(0.027779 -0.0456495 0)
(0.0267783 -0.0602611 0)
(0.0124561 -0.0780333 0)
(0.0217409 -0.0966258 0)
(-0.0136683 -0.144348 0)
(0.0183345 -0.246494 0)
(0.0168066 0.0451315 0)
(0.0301171 0.103203 0)
(0.0454186 0.115306 0)
(0.0528259 0.111354 0)
(0.0580207 0.0972793 0)
(0.0602635 0.0749463 0)
(0.0606002 0.0552978 0)
(0.0604845 0.0392464 0)
(0.0598749 0.0259035 0)
(0.0590313 0.0142214 0)
(0.0570136 0.00363937 0)
(0.0550276 -0.00665553 0)
(0.0508576 -0.0169134 0)
(0.0478546 -0.0281061 0)
(0.0404971 -0.0400881 0)
(0.0374958 -0.0541886 0)
(0.0219656 -0.0695019 0)
(0.0266958 -0.088104 0)
(-0.011805 -0.138494 0)
(0.02414 -0.246009 0)
(0.0102353 0.0144257 0)
(0.0311601 0.0865122 0)
(0.0479558 0.105155 0)
(0.0589582 0.10386 0)
(0.0679366 0.0940127 0)
(0.0744621 0.0761958 0)
(0.0777226 0.0577518 0)
(0.0792359 0.0414847 0)
(0.0791559 0.0279993 0)
(0.0787125 0.0165117 0)
(0.0762342 0.00653581 0)
(0.0741845 -0.0029848 0)
(0.0688673 -0.0121311 0)
(0.0652301 -0.022271 0)
(0.0559202 -0.0326619 0)
(0.0508337 -0.0455585 0)
(0.0336324 -0.0581178 0)
(0.032496 -0.0759496 0)
(-0.00751819 -0.131662 0)
(0.0307899 -0.243498 0)
(-0.00260291 0.00606521 0)
(0.0216454 0.0614308 0)
(0.0433495 0.0855046 0)
(0.0592348 0.0874362 0)
(0.0734485 0.0810686 0)
(0.0852735 0.068271 0)
(0.0934627 0.0539799 0)
(0.0986971 0.0401354 0)
(0.100524 0.0279323 0)
(0.101706 0.0172417 0)
(0.0991211 0.00826187 0)
(0.0973269 -0.000207403 0)
(0.0905339 -0.00770097 0)
(0.0859568 -0.016081 0)
(0.0741204 -0.0237985 0)
(0.0665281 -0.0344674 0)
(0.0465904 -0.0435629 0)
(0.0391001 -0.062416 0)
(-0.000429271 -0.126516 0)
(0.0404579 -0.241189 0)
(-0.0176323 -0.00197852 0)
(0.00678801 0.0487672 0)
(0.0297414 0.0707559 0)
(0.0507079 0.072598 0)
(0.0704902 0.0684144 0)
(0.0886768 0.0587038 0)
(0.101621 0.0476376 0)
(0.112566 0.0371415 0)
(0.117142 0.0283944 0)
(0.121537 0.019956 0)
(0.119898 0.0132631 0)
(0.119264 0.0062916 0)
(0.112129 0.00102545 0)
(0.107059 -0.00570248 0)
(0.0936841 -0.0106617 0)
(0.0839895 -0.0192721 0)
(0.0614612 -0.0254193 0)
(0.0486763 -0.0473464 0)
(0.0145384 -0.121926 0)
(0.0534855 -0.230309 0)
(-0.024193 0.0227655 0)
(-0.0231035 0.0177673 0)
(0.00613815 0.0360057 0)
(0.0330975 0.0380831 0)
(0.0589008 0.0382546 0)
(0.0831087 0.0344337 0)
(0.100695 0.029605 0)
(0.115719 0.02314 0)
(0.124426 0.0185201 0)
(0.131262 0.0132926 0)
(0.133254 0.010484 0)
(0.133287 0.00626186 0)
(0.129302 0.00431883 0)
(0.124677 0.000966696 0)
(0.113815 -0.00115309 0)
(0.105066 -0.00593682 0)
(0.0845846 -0.0116809 0)
(0.0765753 -0.0374282 0)
(0.054752 -0.108566 0)
(0.078112 -0.180871 0)
(0.0369842 0.0339284 0)
(0.0405419 0.0200777 0)
(0.0573323 0.0173028 0)
(0.0886146 0.0166969 0)
(0.112389 0.0186804 0)
(0.140492 0.0173612 0)
(0.161758 0.0171162 0)
(0.184403 0.0145098 0)
(0.200141 0.0139788 0)
(0.216052 0.0115854 0)
(0.226479 0.0114572 0)
(0.236792 0.0093758 0)
(0.243299 0.00961123 0)
(0.249075 0.00767461 0)
(0.252837 0.00821866 0)
(0.254445 0.00589251 0)
(0.250784 0.00450252 0)
(0.238195 -0.00250197 0)
(0.199841 -0.0148478 0)
(0.147755 -0.0347901 0)
)
;

boundaryField
{
    movingWall
    {
        type            fixedValue;
        value           uniform (1 0 0);
    }
    fixedWalls
    {
        type            noSlip;
    }
    frontAndBack
    {
        type            empty;
    }
}


// ************************************************************************* //
