/*--------------------------------*- C++ -*----------------------------------*\
  =========                 |
  \\      /  F ield         | OpenFOAM: The Open Source CFD Toolbox
   \\    /   O peration     | Website:  https://openfoam.org
    \\  /    A nd           | Version:  6
     \\/     M anipulation  |
\*---------------------------------------------------------------------------*/
FoamFile
{
    version     2.0;
    format      ascii;
    class       volScalarField;
    location    "0.5";
    object      Co;
}
// * * * * * * * * * * * * * * * * * * * * * * * * * * * * * * * * * * * * * //

dimensions      [0 0 0 0 0 0 0];

internalField   nonuniform List<scalar> 
400
(
0.00028509
0.000728197
0.0022854
0.00491045
0.0079229
0.0109485
0.0136653
0.0158149
0.0172059
0.0177146
0.0177146
0.0172882
0.0159494
0.0138032
0.0110407
0.0079398
0.00485552
0.00219459
0.000681148
0.000313666
0.000683826
0.00433591
0.0105223
0.0179154
0.0256597
0.032975
0.0391892
0.043767
0.0463238
0.046637
0.0465547
0.0464242
0.044014
0.0394935
0.0332263
0.025769
0.017853
0.0103357
0.00413517
0.000615289
0.00224385
0.0107932
0.0222077
0.034608
0.0466682
0.057315
0.0656964
0.0711825
0.0733685
0.0720846
0.0718498
0.0734378
0.0715374
0.0662184
0.0578243
0.0469881
0.0346375
0.021974
0.0104604
0.00204924
0.00514882
0.0194586
0.0367022
0.0542698
0.0703882
0.0837518
0.0934245
0.0987948
0.0995505
0.0956732
0.095219
0.0996003
0.099353
0.094333
0.0847342
0.0711393
0.0545712
0.0365266
0.0190172
0.00483632
0.00902165
0.0302554
0.0539073
0.0767844
0.0967502
0.112344
0.12263
0.127103
0.125624
0.118387
0.117586
0.125663
0.128016
0.124201
0.114159
0.0983153
0.0776939
0.0540188
0.029802
0.00859236
0.0138211
0.0431917
0.0738751
0.102216
0.125825
0.143193
0.153484
0.156387
0.152001
0.140781
0.139393
0.151984
0.157817
0.156076
0.146347
0.128778
0.104274
0.0746822
0.0429416
0.0133167
0.0195568
0.0583363
0.0967123
0.130652
0.157646
0.176275
0.185933
0.186605
0.178701
0.162967
0.1606
0.178472
0.18867
0.189938
0.181393
0.162754
0.134635
0.0988514
0.058671
0.0190834
0.0262844
0.0758108
0.122534
0.162113
0.192082
0.211299
0.219559
0.217275
0.205248
0.18455
0.180629
0.20449
0.219972
0.22532
0.219054
0.200264
0.169031
0.126903
0.0773233
0.026039
0.0341048
0.0957843
0.151429
0.196475
0.228721
0.247564
0.253428
0.247324
0.230546
0.204519
0.198287
0.228724
0.25043
0.26111
0.258544
0.240944
0.207519
0.159189
0.0993147
0.0344028
0.0431754
0.118482
0.183432
0.23338
0.26673
0.283785
0.285906
0.274916
0.252713
0.221102
0.211664
0.249041
0.277869
0.295312
0.298279
0.283811
0.249787
0.195955
0.125131
0.0444772
0.053744
0.144209
0.218482
0.272117
0.30467
0.317874
0.314435
0.297234
0.268889
0.231592
0.218021
0.262325
0.29901
0.324769
0.335561
0.326947
0.294903
0.237202
0.155309
0.0566743
0.0662196
0.173394
0.25633
0.311399
0.340189
0.346622
0.335236
0.310229
0.275022
0.232165
0.213697
0.264338
0.309257
0.344855
0.366177
0.367061
0.340925
0.282451
0.190396
0.0715738
0.0813028
0.206613
0.296327
0.348944
0.36954
0.365238
0.342942
0.308356
0.265685
0.21773
0.194047
0.249646
0.302546
0.349187
0.383939
0.398883
0.38428
0.330309
0.230842
0.0900258
0.100205
0.244505
0.336863
0.380668
0.386766
0.366704
0.330173
0.284341
0.23398
0.181898
0.153481
0.211693
0.271358
0.329452
0.380227
0.414392
0.418804
0.377644
0.276699
0.113312
0.124936
0.287268
0.374048
0.399131
0.382395
0.340917
0.287115
0.229107
0.171663
0.117174
0.0856412
0.143111
0.207026
0.275522
0.343674
0.401891
0.434253
0.417995
0.326735
0.143294
0.158361
0.332778
0.398684
0.390741
0.341552
0.273774
0.20137
0.136499
0.0924968
0.0584872
0.0304184
0.0693166
0.111397
0.176146
0.260339
0.345187
0.414191
0.438565
0.376055
0.182131
0.202818
0.371076
0.38997
0.331298
0.259782
0.227887
0.224532
0.218993
0.20791
0.188496
0.16799
0.195263
0.213886
0.226333
0.236031
0.26059
0.333492
0.415048
0.410341
0.230172
0.253738
0.370176
0.318246
0.284156
0.30438
0.32746
0.347808
0.361806
0.367159
0.362201
0.351391
0.365801
0.369255
0.363073
0.34929
0.331561
0.316007
0.341924
0.393335
0.278725
0.270519
0.319256
0.341703
0.400676
0.457572
0.504584
0.540387
0.565261
0.579756
0.584182
0.581537
0.585048
0.578281
0.560829
0.531844
0.490608
0.438152
0.381899
0.344783
0.282494
0.270518
0.491592
0.627357
0.712146
0.766532
0.801925
0.825066
0.839866
0.848513
0.852138
0.852137
0.851158
0.845384
0.83391
0.814752
0.784043
0.734497
0.652668
0.514196
0.282494
)
;

boundaryField
{
    movingWall
    {
        type            zeroGradient;
    }
    fixedWalls
    {
        type            zeroGradient;
    }
    frontAndBack
    {
        type            empty;
    }
}


// ************************************************************************* //
