/*--------------------------------*- C++ -*----------------------------------*\
  =========                 |
  \\      /  F ield         | OpenFOAM: The Open Source CFD Toolbox
   \\    /   O peration     | Website:  https://openfoam.org
    \\  /    A nd           | Version:  6
     \\/     M anipulation  |
\*---------------------------------------------------------------------------*/
FoamFile
{
    version     2.0;
    format      ascii;
    class       volScalarField;
    location    "0.3";
    object      p;
}
// * * * * * * * * * * * * * * * * * * * * * * * * * * * * * * * * * * * * * //

dimensions      [0 2 -2 0 0 0 0];

internalField   nonuniform List<scalar> 
400
(
1.49011e-07
-0.00503853
-0.0114224
-0.0162634
-0.0178901
-0.0155969
-0.00932223
0.00053454
0.0132357
0.0278137
0.0431407
0.0579815
0.0711111
0.081404
0.0879693
0.0903094
0.0884934
0.0833518
0.0767455
0.0716521
0.00496484
-0.000218944
-0.00590202
-0.00980373
-0.0108886
-0.00868321
-0.0031463
0.00539916
0.0163462
0.0288917
0.0420801
0.054867
0.0662139
0.0751685
0.0809814
0.0832368
0.0819795
0.0777966
0.0719053
0.0666719
0.0116661
0.00516649
-0.000949608
-0.00460106
-0.00547737
-0.00343124
0.0014946
0.00900344
0.0185808
0.0295485
0.0410934
0.0523275
0.0623508
0.0703274
0.0755825
0.0777105
0.0766598
0.0726901
0.0663145
0.0597263
0.0175708
0.00904509
0.0015503
-0.00259157
-0.00363863
-0.00175661
0.00288936
0.00997054
0.0189974
0.0293474
0.0402831
0.0509878
0.0606132
0.0683444
0.0734835
0.075548
0.0743356
0.0697947
0.0619129
0.053193
0.0209961
0.0102375
0.0010341
-0.00387005
-0.00517809
-0.00333171
0.00137471
0.00855324
0.0177015
0.028212
0.0393745
0.0503901
0.0604044
0.0685594
0.0740686
0.0763154
0.0749146
0.0695265
0.0597417
0.0485986
0.0207282
0.00769922
-0.00326603
-0.00892976
-0.010379
-0.00830868
-0.00314287
0.0046585
0.0145603
0.0259468
0.0381058
0.0502238
0.0614016
0.0706937
0.0771747
0.0800444
0.078698
0.0725024
0.0606999
0.0469867
0.015676
0.000374083
-0.0122917
-0.0185493
-0.019862
-0.017181
-0.0110674
-0.00206226
0.00925633
0.0222536
0.0362024
0.050257
0.0634492
0.0747137
0.0829404
0.0870902
0.0862822
0.0795396
0.0657327
0.0493138
0.00468643
-0.0128829
-0.0271037
-0.0336415
-0.0343809
-0.0305645
-0.0229099
-0.0120486
0.00139681
0.0167755
0.0333492
0.0502394
0.0663997
0.0806293
0.0915894
0.097937
0.0984282
0.091638
0.0759595
0.0566941
-0.0135967
-0.0334078
-0.048931
-0.0552519
-0.0547849
-0.0491383
-0.0392216
-0.0257667
-0.00943299
0.00913331
0.0292062
0.0498925
0.0700866
0.0884582
0.103398
0.113185
0.116092
0.110072
0.0928355
0.0706129
-0.0408805
-0.0628461
-0.0792385
-0.0845718
-0.0819862
-0.0735827
-0.0605159
-0.0436273
-0.0235916
-0.0010084
0.0234521
0.0489151
0.0743395
0.0982302
0.118695
0.133568
0.140485
0.136513
0.118343
0.0931664
-0.0794292
-0.103307
-0.119801
-0.122927
-0.116885
-0.104463
-0.087131
-0.0658402
-0.0412331
-0.0137925
0.0159131
0.0472145
0.0791077
0.110017
0.13786
0.159961
0.173124
0.173173
0.155232
0.127384
-0.132411
-0.157599
-0.172789
-0.171728
-0.160225
-0.142037
-0.119017
-0.0921934
-0.0620859
-0.0290219
0.00671378
0.0447604
0.0842877
0.123878
0.161293
0.193368
0.21588
0.222971
0.207362
0.177715
-0.204549
-0.229624
-0.240865
-0.232341
-0.212341
-0.185959
-0.15544
-0.121787
-0.0853458
-0.0460829
-0.00372068
0.0417888
0.0900374
0.139947
0.189384
0.234856
0.270948
0.289725
0.280211
0.250862
-0.303464
-0.324993
-0.327245
-0.305858
-0.272745
-0.234849
-0.194641
-0.152858
-0.10934
-0.0634024
-0.0141752
0.0390829
0.09672
0.158339
0.22232
0.285266
0.340612
0.378204
0.381641
0.357351
-0.442269
-0.452106
-0.4356
-0.392412
-0.339577
-0.285887
-0.233527
-0.182305
-0.13123
-0.0787257
-0.0229988
0.0376844
0.10475
0.178938
0.259756
0.344667
0.427177
0.493707
0.52281
0.514175
-0.642336
-0.622961
-0.569486
-0.490197
-0.408869
-0.334494
-0.267329
-0.205829
-0.147485
-0.0893182
-0.0282818
0.0386179
0.114227
0.200973
0.300388
0.412116
0.531786
0.643608
0.718843
0.747121
-0.93808
-0.85346
-0.729033
-0.593051
-0.472723
-0.372408
-0.289095
-0.218096
-0.154229
-0.0925961
-0.0286596
0.0419885
0.12388
0.221641
0.339968
0.482783
0.650294
0.830912
0.989117
1.09439
-1.43108
-1.17265
-0.901077
-0.680027
-0.511643
-0.384931
-0.288779
-0.212669
-0.147789
-0.0870719
-0.0245801
0.0453358
0.128842
0.232913
0.366359
0.539747
0.763547
1.04399
1.3682
1.66533
-2.49391
-1.64642
-1.04525
-0.704773
-0.492754
-0.35136
-0.254173
-0.183193
-0.125783
-0.0732301
-0.0190361
0.0430728
0.120062
0.22045
0.3572
0.54949
0.8258
1.24452
1.92907
2.84573
-4.48174
-2.27182
-1.15565
-0.682462
-0.435747
-0.290252
-0.201364
-0.1426
-0.0978186
-0.0573929
-0.0153423
0.0348854
0.100392
0.189642
0.318977
0.517506
0.837157
1.41067
2.64128
4.94739
)
;

boundaryField
{
    movingWall
    {
        type            zeroGradient;
    }
    fixedWalls
    {
        type            zeroGradient;
    }
    frontAndBack
    {
        type            empty;
    }
}


// ************************************************************************* //
