/*--------------------------------*- C++ -*----------------------------------*\
  =========                 |
  \\      /  F ield         | OpenFOAM: The Open Source CFD Toolbox
   \\    /   O peration     | Website:  https://openfoam.org
    \\  /    A nd           | Version:  6
     \\/     M anipulation  |
\*---------------------------------------------------------------------------*/
FoamFile
{
    version     2.0;
    format      ascii;
    class       surfaceScalarField;
    location    "0.3";
    object      phi;
}
// * * * * * * * * * * * * * * * * * * * * * * * * * * * * * * * * * * * * * //

dimensions      [0 3 -1 0 0 0 0];

internalField   nonuniform List<scalar> 
760
(
6.97176e-09
-6.97305e-09
-3.19904e-08
3.89622e-08
-1.22698e-07
9.07076e-08
-2.50733e-07
1.28036e-07
-3.97483e-07
1.46751e-07
-5.4498e-07
1.47497e-07
-6.77585e-07
1.32605e-07
-7.82633e-07
1.05049e-07
-8.50669e-07
6.80362e-08
-8.75637e-07
2.49671e-08
-8.54885e-07
-2.07522e-08
-7.89574e-07
-6.53107e-08
-6.84885e-07
-1.04689e-07
-5.5022e-07
-1.34665e-07
-3.99143e-07
-1.51078e-07
-2.48839e-07
-1.50304e-07
-1.18832e-07
-1.30008e-07
-2.8493e-08
-9.03394e-08
8.47833e-09
-3.69715e-08
8.47843e-09
-3.77237e-08
3.07508e-08
-1.84563e-07
1.85802e-07
-4.3764e-07
3.43785e-07
-7.6694e-07
4.57336e-07
-1.1331e-06
5.12906e-07
-1.49631e-06
5.10708e-07
-1.82073e-06
4.57025e-07
-2.07667e-06
3.60996e-07
-2.24174e-06
2.33101e-07
-2.30151e-06
8.47415e-08
-2.25007e-06
-7.21926e-08
-2.09051e-06
-2.24876e-07
-1.83543e-06
-3.59767e-07
-1.50711e-06
-4.6299e-07
-1.13691e-06
-5.2127e-07
-7.63659e-07
-5.23558e-07
-4.3018e-07
-4.63487e-07
-1.77457e-07
-3.43063e-07
-3.44517e-08
-1.79977e-07
-2.59729e-08
-9.31681e-08
1.23919e-07
-3.58212e-07
4.50846e-07
-7.65548e-07
7.51121e-07
-1.26896e-06
9.60746e-07
-1.81437e-06
1.05832e-06
-2.34777e-06
1.0441e-06
-2.82027e-06
9.29525e-07
-3.19117e-06
7.31898e-07
-3.42968e-06
4.71612e-07
-3.51589e-06
1.70951e-07
-3.44172e-06
-1.46369e-07
-3.21151e-06
-4.55086e-07
-2.84262e-06
-7.28655e-07
-2.3655e-06
-9.40106e-07
-1.82287e-06
-1.0639e-06
-1.2674e-06
-1.07903e-06
-7.57284e-07
-9.73607e-07
-3.49216e-07
-7.51131e-07
-8.8662e-08
-4.40531e-07
-1.14634e-07
-1.4525e-07
2.69169e-07
-5.25574e-07
8.3117e-07
-1.08137e-06
1.30691e-06
-1.74649e-06
1.62587e-06
-2.45233e-06
1.76416e-06
-3.13334e-06
1.72512e-06
-3.73139e-06
1.52758e-06
-4.1985e-06
1.19901e-06
-4.49848e-06
7.7159e-07
-4.60794e-06
2.80406e-07
-4.51715e-06
-2.37154e-07
-4.23084e-06
-7.41401e-07
-3.76883e-06
-1.19066e-06
-3.16639e-06
-1.54254e-06
-2.47363e-06
-1.75666e-06
-1.75335e-06
-1.79931e-06
-1.07677e-06
-1.65019e-06
-5.16843e-07
-1.31105e-06
-1.40027e-07
-8.17347e-07
-2.5466e-07
-1.93487e-07
4.62656e-07
-6.84555e-07
1.32224e-06
-1.38428e-06
2.00664e-06
-2.20455e-06
2.44614e-06
-3.06124e-06
2.62085e-06
-3.87812e-06
2.54199e-06
-4.58975e-06
2.23921e-06
-5.14324e-06
1.75249e-06
-5.49909e-06
1.12744e-06
-5.6317e-06
4.13017e-07
-5.52995e-06
-3.38902e-07
-5.19797e-06
-1.07338e-06
-4.6561e-06
-1.73253e-06
-3.94184e-06
-2.2568e-06
-3.11008e-06
-2.58842e-06
-2.23196e-06
-2.67743e-06
-1.39161e-06
-2.49055e-06
-6.80274e-07
-2.02239e-06
-1.8867e-07
-1.30895e-06
-4.43329e-07
-2.40025e-07
7.02682e-07
-8.39617e-07
1.92183e-06
-1.68082e-06
2.84784e-06
-2.65232e-06
3.41763e-06
-3.65373e-06
3.62227e-06
-4.59861e-06
3.48687e-06
-5.41572e-06
3.05632e-06
-6.04918e-06
2.38595e-06
-6.45792e-06
1.53618e-06
-6.61523e-06
5.70324e-07
-6.50866e-06
-4.45472e-07
-6.14076e-06
-1.44129e-06
-5.53048e-06
-2.34281e-06
-4.71504e-06
-3.07223e-06
-3.75178e-06
-3.55169e-06
-2.71874e-06
-3.71046e-06
-1.71319e-06
-3.49609e-06
-8.46831e-07
-2.88875e-06
-2.37698e-07
-1.91808e-06
-6.81026e-07
-2.87238e-07
9.89919e-07
-9.96183e-07
2.63077e-06
-1.97829e-06
3.82995e-06
-3.0976e-06
4.53694e-06
-4.23712e-06
4.76179e-06
-5.30112e-06
4.55087e-06
-6.21446e-06
3.96967e-06
-6.92056e-06
3.09205e-06
-7.37883e-06
1.99445e-06
-7.56266e-06
7.54154e-07
-7.45849e-06
-5.49643e-07
-7.06625e-06
-1.83352e-06
-6.40134e-06
-3.00772e-06
-5.4978e-06
-3.97577e-06
-4.41234e-06
-4.63715e-06
-3.22775e-06
-4.89506e-06
-2.05401e-06
-4.66984e-06
-1.0252e-06
-3.91756e-06
-2.9065e-07
-2.65264e-06
-9.71675e-07
-3.37366e-07
1.32729e-06
-1.15922e-06
3.45263e-06
-2.28239e-06
4.95312e-06
-3.54412e-06
5.79867e-06
-4.81087e-06
6.02855e-06
-5.97954e-06
5.71954e-06
-6.97412e-06
4.96425e-06
-7.74056e-06
3.85848e-06
-8.24157e-06
2.49545e-06
-8.45253e-06
9.65116e-07
-8.35926e-06
-6.42912e-07
-7.95805e-06
-2.23473e-06
-7.25824e-06
-3.70753e-06
-6.28682e-06
-4.9472e-06
-5.09546e-06
-5.8285e-06
-3.76777e-06
-6.22275e-06
-2.42455e-06
-6.01306e-06
-1.22367e-06
-5.11844e-06
-3.51035e-07
-3.52527e-06
-1.32271e-06
-3.92693e-07
1.71998e-06
-1.33318e-06
4.39311e-06
-2.59654e-06
6.21648e-06
-3.99008e-06
7.1922e-06
-5.3645e-06
7.40297e-06
-6.61284e-06
6.96788e-06
-7.66296e-06
6.01436e-06
-8.46814e-06
4.66367e-06
-8.99847e-06
3.02578e-06
-9.23408e-06
1.20073e-06
-9.16123e-06
-7.15756e-07
-8.77169e-06
-2.62428e-06
-8.06586e-06
-4.41335e-06
-7.0587e-06
-5.95435e-06
-5.79049e-06
-7.09672e-06
-4.33906e-06
-7.67417e-06
-2.8315e-06
-7.52063e-06
-1.44956e-06
-6.50037e-06
-4.22406e-07
-4.55243e-06
-1.74511e-06
-4.56071e-07
2.17605e-06
-1.5227e-06
5.45975e-06
-2.92189e-06
7.61567e-06
-4.42693e-06
8.69724e-06
-5.87513e-06
8.85117e-06
-7.16163e-06
8.25439e-06
-8.22533e-06
7.07806e-06
-9.03365e-06
5.47199e-06
-9.56953e-06
3.56166e-06
-9.82179e-06
1.453e-06
-9.77907e-06
-7.58477e-07
-9.4283e-06
-2.97505e-06
-8.75713e-06
-5.08453e-06
-7.76327e-06
-6.94821e-06
-6.46674e-06
-8.39325e-06
-4.92941e-06
-9.2115e-06
-3.27595e-06
-9.17409e-06
-1.70911e-06
-8.06721e-06
-5.087e-07
-5.75283e-06
-2.25381e-06
-5.31813e-07
2.70786e-06
-1.73367e-06
6.6616e-06
-3.25717e-06
9.13917e-06
-4.8374e-06
1.02775e-05
-6.30367e-06
1.03174e-05
-7.56315e-06
9.51387e-06
-8.57612e-06
8.09102e-06
-9.33305e-06
6.22892e-06
-9.8366e-06
4.0652e-06
-1.00888e-05
1.70519e-06
-1.00839e-05
-7.63399e-07
-9.80466e-06
-3.25426e-06
-9.22398e-06
-5.66521e-06
-8.31454e-06
-7.85766e-06
-7.06552e-06
-9.64226e-06
-5.50842e-06
-1.07686e-05
-3.75068e-06
-1.09318e-05
-2.00722e-06
-9.81067e-06
-6.14814e-07
-7.14524e-06
-2.86863e-06
-6.27045e-07
3.33491e-06
-1.97435e-06
8.0089e-06
-3.59736e-06
1.07622e-05
-5.19076e-06
1.18709e-05
-6.58771e-06
1.17144e-05
-7.72308e-06
1.06492e-05
-8.5927e-06
8.96064e-06
-9.22081e-06
6.85703e-06
-9.63756e-06
4.48195e-06
-9.86387e-06
1.9315e-06
-9.90195e-06
-7.25323e-07
-9.73107e-06
-3.42514e-06
-9.30934e-06
-6.08694e-06
-8.57982e-06
-8.58718e-06
-7.48883e-06
-1.07333e-05
-6.01824e-06
-1.22392e-05
-4.23506e-06
-1.2715e-05
-2.34659e-06
-1.16991e-05
-7.47429e-07
-8.7444e-06
-3.61605e-06
-7.53636e-07
4.08855e-06
-2.25547e-06
9.51074e-06
-3.92809e-06
1.24348e-05
-5.43201e-06
1.33748e-05
-6.62774e-06
1.29101e-05
-7.50177e-06
1.15233e-05
-8.10324e-06
9.56212e-06
-8.50164e-06
7.25543e-06
-8.76013e-06
4.74045e-06
-8.92156e-06
2.09293e-06
-9.00015e-06
-6.46737e-07
-8.97615e-06
-3.44913e-06
-8.79369e-06
-6.26941e-06
-8.36445e-06
-9.01642e-06
-7.58241e-06
-1.15153e-05
-6.35793e-06
-1.34637e-05
-4.68506e-06
-1.43879e-05
-2.72472e-06
-1.36595e-05
-9.16071e-07
-1.0553e-05
-4.53212e-06
-9.30854e-07
5.0194e-06
-2.58596e-06
1.11658e-05
-4.20949e-06
1.40583e-05
-5.45766e-06
1.4623e-05
-6.26122e-06
1.37137e-05
-6.69142e-06
1.19534e-05
-6.86945e-06
9.74015e-06
-6.91646e-06
7.30244e-06
-6.93164e-06
4.75563e-06
-6.9809e-06
2.1422e-06
-7.09156e-06
-5.36083e-07
-7.24812e-06
-3.29257e-06
-7.38742e-06
-6.1301e-06
-7.39538e-06
-9.00847e-06
-7.112e-06
-1.17987e-05
-6.35751e-06
-1.42182e-05
-5.01264e-06
-1.57327e-05
-3.12537e-06
-1.55467e-05
-1.13382e-06
-1.25446e-05
-5.66594e-06
-1.18261e-06
6.20201e-06
-2.95114e-06
1.29344e-05
-4.33811e-06
1.54453e-05
-5.06803e-06
1.53529e-05
-5.21842e-06
1.38641e-05
-4.98349e-06
1.17185e-05
-4.56589e-06
9.32255e-06
-4.13875e-06
6.8753e-06
-3.82911e-06
4.44599e-06
-3.7182e-06
2.03129e-06
-3.84412e-06
-4.10161e-07
-4.20042e-06
-2.93627e-06
-4.72856e-06
-5.60196e-06
-5.30558e-06
-8.43144e-06
-5.73233e-06
-1.13719e-05
-5.73855e-06
-1.42119e-05
-5.03783e-06
-1.64335e-05
-3.49494e-06
-1.70896e-05
-1.41277e-06
-1.46268e-05
-7.07871e-06
-1.51646e-06
7.71847e-06
-3.25313e-06
1.4671e-05
-4.05533e-06
1.62475e-05
-3.88313e-06
1.51807e-05
-3.05608e-06
1.3037e-05
-1.91845e-06
1.05809e-05
-7.55779e-07
8.15988e-06
2.3202e-07
5.88751e-06
9.1599e-07
3.76202e-06
1.21792e-06
1.72936e-06
1.09722e-06
-2.89461e-07
5.47951e-07
-2.387e-06
-3.92596e-07
-4.66142e-06
-1.62354e-06
-7.2005e-06
-2.94729e-06
-1.00482e-05
-4.03576e-06
-1.31235e-05
-4.42272e-06
-1.60465e-05
-3.66508e-06
-1.78473e-05
-1.73711e-06
-1.65548e-05
-8.81582e-06
-1.87182e-06
9.5903e-06
-3.17219e-06
1.59714e-05
-2.76572e-06
1.5841e-05
-1.15844e-06
1.35734e-05
9.89081e-07
1.08895e-05
3.18472e-06
8.38526e-06
5.12945e-06
6.21514e-06
6.65931e-06
4.35764e-06
7.68737e-06
2.73397e-06
8.16626e-06
1.25047e-06
8.06681e-06
-1.90009e-07
7.37059e-06
-1.69078e-06
6.077e-06
-3.36783e-06
4.22451e-06
-5.34801e-06
1.93905e-06
-7.76272e-06
-4.87811e-07
-1.06966e-05
-2.49387e-06
-1.40405e-05
-3.22766e-06
-1.71135e-05
-2.00082e-06
-1.77816e-05
-1.08166e-05
-2.04971e-06
1.164e-05
-1.78751e-06
1.57092e-05
9.08196e-07
1.31453e-05
4.52693e-06
9.95466e-06
8.11314e-06
7.3033e-06
1.12397e-05
5.25869e-06
1.37508e-05
3.70402e-06
1.56076e-05
2.50086e-06
1.68149e-05
1.5267e-06
1.73827e-05
6.82669e-07
1.73071e-05
-1.14446e-07
1.65619e-05
-9.45616e-07
1.51022e-05
-1.90807e-06
1.2872e-05
-3.11784e-06
9.84523e-06
-4.73593e-06
6.11469e-06
-6.96607e-06
2.07696e-06
-1.00027e-05
-1.2194e-06
-1.38171e-05
-1.95524e-06
-1.70458e-05
-1.27719e-05
-8.53353e-07
1.24934e-05
3.89584e-06
1.096e-05
1.00531e-05
6.98804e-06
1.55371e-05
4.47066e-06
1.99166e-05
2.92383e-06
2.32506e-05
1.92474e-06
2.56913e-05
1.26323e-06
2.73848e-05
8.07397e-07
2.84408e-05
4.70718e-07
2.89261e-05
1.97399e-07
2.88628e-05
-5.11602e-08
2.8227e-05
-3.09844e-07
2.69453e-05
-6.26341e-07
2.48821e-05
-1.05466e-06
2.18377e-05
-1.69157e-06
1.75719e-05
-2.70025e-06
1.19156e-05
-4.34644e-06
5.20382e-06
-7.1053e-06
-3.66415e-07
-1.14755e-05
-1.31383e-05
1.24934e-05
2.34534e-05
3.04414e-05
3.49121e-05
3.78359e-05
3.97606e-05
4.10239e-05
4.18313e-05
4.2302e-05
4.24994e-05
4.24482e-05
4.21384e-05
4.1512e-05
4.04574e-05
3.87658e-05
3.60656e-05
3.17191e-05
2.46138e-05
1.31383e-05
)
;

boundaryField
{
    movingWall
    {
        type            calculated;
        value           uniform 0;
    }
    fixedWalls
    {
        type            calculated;
        value           uniform 0;
    }
    frontAndBack
    {
        type            empty;
        value           nonuniform 0();
    }
}


// ************************************************************************* //
