/*--------------------------------*- C++ -*----------------------------------*\
  =========                 |
  \\      /  F ield         | OpenFOAM: The Open Source CFD Toolbox
   \\    /   O peration     | Website:  https://openfoam.org
    \\  /    A nd           | Version:  6
     \\/     M anipulation  |
\*---------------------------------------------------------------------------*/
FoamFile
{
    version     2.0;
    format      ascii;
    class       volVectorField;
    location    "0.3";
    object      U;
}
// * * * * * * * * * * * * * * * * * * * * * * * * * * * * * * * * * * * * * //

dimensions      [0 1 -1 0 0 0 0];

internalField   nonuniform List<vector> 
400
(
(0.000187166 -0.000188091 0)
(-5.30984e-05 2.31722e-05 0)
(-0.00137091 0.000281422 0)
(-0.00362058 0.000459593 0)
(-0.00644403 0.000548479 0)
(-0.00945839 0.000559414 0)
(-0.0123208 0.000506382 0)
(-0.0147457 0.000403386 0)
(-0.0165112 0.000263718 0)
(-0.0174592 0.000100457 0)
(-0.0175046 -7.39264e-05 0)
(-0.0166295 -0.000245365 0)
(-0.0148972 -0.000397979 0)
(-0.0124537 -0.000514347 0)
(-0.00953025 -0.000576045 0)
(-0.00643891 -0.000565389 0)
(-0.00355617 -0.000468122 0)
(-0.00129017 -0.000276968 0)
(1.56601e-06 -9.71831e-06 0)
(0.000198793 0.000198902 0)
(-4.57919e-06 3.14438e-05 0)
(-0.00173561 0.00174402 0)
(-0.00578946 0.00366109 0)
(-0.0117809 0.00506613 0)
(-0.0189263 0.00577382 0)
(-0.0264001 0.00579273 0)
(-0.033432 0.00520493 0)
(-0.0393591 0.00412241 0)
(-0.0436576 0.00266899 0)
(-0.0459523 0.00097866 0)
(-0.046043 -0.000814297 0)
(-0.0438951 -0.00256008 0)
(-0.0396657 -0.00410112 0)
(-0.0337046 -0.00527371 0)
(-0.0265536 -0.00591857 0)
(-0.0189258 -0.00589991 0)
(-0.0116573 -0.00513534 0)
(-0.00562597 -0.00364521 0)
(-0.00162022 -0.00166748 0)
(1.82167e-05 2.86683e-05 0)
(-0.000259472 0.00132524 0)
(-0.00381957 0.00581759 0)
(-0.010639 0.0102081 0)
(-0.0200023 0.0133483 0)
(-0.0307652 0.0148663 0)
(-0.0418071 0.0147553 0)
(-0.0520851 0.013183 0)
(-0.0606935 0.0104035 0)
(-0.066911 0.00671396 0)
(-0.0702255 0.00243832 0)
(-0.0703547 -0.00207983 0)
(-0.0672577 -0.00647402 0)
(-0.0611503 -0.0103578 0)
(-0.0525122 -0.0133374 0)
(-0.0420824 -0.0150392 0)
(-0.0308293 -0.015156 0)
(-0.0198831 -0.0135167 0)
(-0.0104404 -0.0101874 0)
(-0.00366538 -0.00565283 0)
(-0.00022733 -0.00118647 0)
(-0.000478678 0.00371567 0)
(-0.00582609 0.01229 0)
(-0.015342 0.019872 0)
(-0.0278966 0.0250875 0)
(-0.0419528 0.0274544 0)
(-0.0561301 0.0269883 0)
(-0.0691831 0.023977 0)
(-0.0800421 0.0188567 0)
(-0.0878591 0.0121439 0)
(-0.092034 0.00440447 0)
(-0.0922324 -0.00375776 0)
(-0.0884006 -0.0117008 0)
(-0.0807819 -0.0187512 0)
(-0.0699276 -0.0242256 0)
(-0.0566978 -0.0274782 0)
(-0.0422347 -0.027978 0)
(-0.027896 -0.0254218 0)
(-0.0151738 -0.0198838 0)
(-0.00565632 -0.0120335 0)
(-0.000437438 -0.00347521 0)
(-0.000668999 0.00711178 0)
(-0.00771056 0.0210221 0)
(-0.0198431 0.0324526 0)
(-0.035484 0.0399782 0)
(-0.0526703 0.0431296 0)
(-0.069761 0.0420258 0)
(-0.0853396 0.037132 0)
(-0.0982192 0.0291094 0)
(-0.107473 0.018728 0)
(-0.112447 0.00682399 0)
(-0.112771 -0.00571205 0)
(-0.108373 -0.0179358 0)
(-0.0994919 -0.0288552 0)
(-0.086703 -0.0374587 0)
(-0.0709322 -0.0427779 0)
(-0.053447 -0.0439963 0)
(-0.0358103 -0.0406047 0)
(-0.0198284 -0.0325969 0)
(-0.00757246 -0.0207166 0)
(-0.000621657 -0.00676338 0)
(-0.000848324 0.011449 0)
(-0.00953896 0.0319334 0)
(-0.0242481 0.0478717 0)
(-0.0429168 0.0579161 0)
(-0.0631324 0.0617433 0)
(-0.0829905 0.0596848 0)
(-0.100925 0.0524617 0)
(-0.11567 0.0410121 0)
(-0.126258 0.0263893 0)
(-0.132014 0.00971534 0)
(-0.132544 -0.00782685 0)
(-0.127746 -0.0249851 0)
(-0.117825 -0.0404362 0)
(-0.103336 -0.0528113 0)
(-0.0852159 -0.0607676 0)
(-0.0648173 -0.0631229 0)
(-0.0438928 -0.0590544 0)
(-0.0245876 -0.0483497 0)
(-0.0095166 -0.0317005 0)
(-0.000802732 -0.0110176 0)
(-0.00103233 0.0167159 0)
(-0.0113937 0.0450113 0)
(-0.0286893 0.0661082 0)
(-0.0503508 0.0788464 0)
(-0.0734936 0.0831947 0)
(-0.0959562 0.0798286 0)
(-0.116055 0.0698231 0)
(-0.132488 0.0544533 0)
(-0.144295 0.0350825 0)
(-0.150813 0.0131199 0)
(-0.151641 -0.00997233 0)
(-0.146638 -0.0326507 0)
(-0.135945 -0.053267 0)
(-0.120039 -0.0700787 0)
(-0.0998081 -0.0813139 0)
(-0.0766305 -0.0853258 0)
(-0.0524184 -0.0808369 0)
(-0.0296713 -0.0672629 0)
(-0.0116151 -0.0450928 0)
(-0.0010024 -0.0162792 0)
(-0.00123553 0.0229487 0)
(-0.0133543 0.0603031 0)
(-0.0332853 0.0871665 0)
(-0.0578925 0.102697 0)
(-0.0837946 0.10733 0)
(-0.108596 0.102249 0)
(-0.130547 0.088998 0)
(-0.148379 0.0692577 0)
(-0.161203 0.0447213 0)
(-0.168414 0.0170699 0)
(-0.169632 -0.0119921 0)
(-0.164673 -0.0406728 0)
(-0.153574 -0.0670313 0)
(-0.136672 -0.0889534 0)
(-0.114717 -0.104189 0)
(-0.0890238 -0.110514 0)
(-0.061598 -0.106016 0)
(-0.0352834 -0.0895191 0)
(-0.0139947 -0.0611036 0)
(-0.00124233 -0.0226621 0)
(-0.00147373 0.0302281 0)
(-0.0155006 0.0779047 0)
(-0.0381339 0.11105 0)
(-0.065577 0.129325 0)
(-0.0939255 0.133869 0)
(-0.120598 0.126575 0)
(-0.14387 0.109604 0)
(-0.162607 0.0851073 0)
(-0.176079 0.0551193 0)
(-0.183815 0.0215557 0)
(-0.185493 -0.0137043 0)
(-0.180888 -0.0486977 0)
(-0.169897 -0.0812591 0)
(-0.152637 -0.108936 0)
(-0.129603 -0.128971 0)
(-0.101908 -0.138442 0)
(-0.0715263 -0.134582 0)
(-0.0415906 -0.115323 0)
(-0.0167812 -0.0800311 0)
(-0.00154665 -0.0303511 0)
(-0.00176872 0.0386843 0)
(-0.017929 0.0979516 0)
(-0.043322 0.13772 0)
(-0.0733573 0.158446 0)
(-0.103589 0.162306 0)
(-0.131344 0.152175 0)
(-0.155068 0.130992 0)
(-0.173903 0.101453 0)
(-0.187406 0.0659214 0)
(-0.195333 0.0264824 0)
(-0.197484 -0.0149152 0)
(-0.193614 -0.0562679 0)
(-0.183425 -0.0952718 0)
(-0.166742 -0.129242 0)
(-0.143653 -0.154921 0)
(-0.114868 -0.16858 0)
(-0.0821247 -0.166338 0)
(-0.0487064 -0.14483 0)
(-0.0201075 -0.102238 0)
(-0.00194624 -0.0396049 0)
(-0.00215614 0.0485161 0)
(-0.0207798 0.120614 0)
(-0.048941 0.167042 0)
(-0.0810834 0.189532 0)
(-0.112238 0.191787 0)
(-0.139817 0.178017 0)
(-0.16265 0.152128 0)
(-0.180355 0.117414 0)
(-0.192937 0.0765278 0)
(-0.200491 0.0316248 0)
(-0.203019 -0.0154317 0)
(-0.200273 -0.0627322 0)
(-0.191815 -0.108103 0)
(-0.177014 -0.14869 0)
(-0.1554 -0.180834 0)
(-0.127021 -0.199943 0)
(-0.0930551 -0.200742 0)
(-0.0566672 -0.178041 0)
(-0.0241268 -0.128117 0)
(-0.00248583 -0.0507701 0)
(-0.0026988 0.0600346 0)
(-0.0242742 0.146094 0)
(-0.0550905 0.198691 0)
(-0.0884405 0.221653 0)
(-0.118955 0.220932 0)
(-0.144437 0.202516 0)
(-0.164421 0.171467 0)
(-0.179254 0.131687 0)
(-0.189558 0.0860299 0)
(-0.195927 0.0365443 0)
(-0.198606 -0.0151308 0)
(-0.19742 -0.0674527 0)
(-0.191734 -0.118515 0)
(-0.180499 -0.165625 0)
(-0.162496 -0.204881 0)
(-0.136794 -0.230868 0)
(-0.10357 -0.236668 0)
(-0.0653776 -0.214625 0)
(-0.0290275 -0.158035 0)
(-0.00323587 -0.0643101 0)
(-0.00351034 0.0737427 0)
(-0.0287576 0.174613 0)
(-0.061832 0.231997 0)
(-0.0947734 0.25325 0)
(-0.122189 0.247613 0)
(-0.142781 0.223367 0)
(-0.157227 0.186848 0)
(-0.166881 0.142484 0)
(-0.173187 0.0931438 0)
(-0.177236 0.0406178 0)
(-0.17963 -0.0139581 0)
(-0.180351 -0.0696017 0)
(-0.178628 -0.124985 0)
(-0.172986 -0.177869 0)
(-0.161374 -0.224461 0)
(-0.141584 -0.258752 0)
(-0.112237 -0.272075 0)
(-0.0744793 -0.253639 0)
(-0.0350381 -0.192232 0)
(-0.00431389 -0.0808583 0)
(-0.00479542 0.0904549 0)
(-0.0347177 0.206341 0)
(-0.0689909 0.265622 0)
(-0.0986461 0.281748 0)
(-0.119227 0.268675 0)
(-0.131067 0.237387 0)
(-0.136544 0.195443 0)
(-0.138244 0.147539 0)
(-0.138456 0.096297 0)
(-0.138864 0.0429586 0)
(-0.140419 -0.0120146 0)
(-0.143265 -0.0684287 0)
(-0.146635 -0.125817 0)
(-0.148761 -0.18278 0)
(-0.146842 -0.23613 0)
(-0.137228 -0.279799 0)
(-0.11644 -0.303581 0)
(-0.0830383 -0.293071 0)
(-0.0423783 -0.230587 0)
(-0.00591559 -0.101276 0)
(-0.00684597 0.111389 0)
(-0.0425804 0.241039 0)
(-0.0754796 0.296927 0)
(-0.096988 0.303056 0)
(-0.105186 0.279624 0)
(-0.103414 0.240465 0)
(-0.0959373 0.193865 0)
(-0.0867602 0.14429 0)
(-0.0788885 0.0937076 0)
(-0.0743881 0.0425584 0)
(-0.0744483 -0.00954808 0)
(-0.0794058 -0.0633382 0)
(-0.0886575 -0.119393 0)
(-0.100454 -0.17751 0)
(-0.111611 -0.235736 0)
(-0.117277 -0.288867 0)
(-0.111422 -0.325796 0)
(-0.0887695 -0.329238 0)
(-0.0509858 -0.272143 0)
(-0.00829304 -0.126651 0)
(-0.00985386 0.13841 0)
(-0.0519236 0.277319 0)
(-0.077687 0.320897 0)
(-0.0830461 0.310675 0)
(-0.0717214 0.274449 0)
(-0.0505033 0.22776 0)
(-0.0263311 0.178603 0)
(-0.00405679 0.130389 0)
(0.0131514 0.0838899 0)
(0.0232977 0.0385316 0)
(0.0252319 -0.00694362 0)
(0.0184789 -0.0541192 0)
(0.00328752 -0.104606 0)
(-0.0190872 -0.159573 0)
(-0.045832 -0.218876 0)
(-0.0717858 -0.279311 0)
(-0.0886615 -0.331285 0)
(-0.0864838 -0.354522 0)
(-0.0594517 -0.314119 0)
(-0.0114916 -0.158408 0)
(-0.0137736 0.175396 0)
(-0.0592745 0.311324 0)
(-0.0658507 0.328175 0)
(-0.0431042 0.295259 0)
(-0.00295148 0.245815 0)
(0.0423286 0.194557 0)
(0.0847671 0.147164 0)
(0.120087 0.104709 0)
(0.145979 0.0663613 0)
(0.161232 0.0305499 0)
(0.165143 -0.0046068 0)
(0.157246 -0.0412072 0)
(0.137289 -0.0815466 0)
(0.105498 -0.127945 0)
(0.0632373 -0.182293 0)
(0.0143116 -0.244571 0)
(-0.0330977 -0.309385 0)
(-0.0644442 -0.358672 0)
(-0.0627666 -0.35022 0)
(-0.0152122 -0.199665 0)
(-0.0183001 0.226784 0)
(-0.0514665 0.331484 0)
(-0.0161368 0.302993 0)
(0.0526426 0.244785 0)
(0.12776 0.187708 0)
(0.196071 0.139559 0)
(0.252859 0.100679 0)
(0.296623 0.0691992 0)
(0.32724 0.0428484 0)
(0.344984 0.0194992 0)
(0.34997 -0.0028065 0)
(0.341929 -0.0260748 0)
(0.320113 -0.0526008 0)
(0.283424 -0.0850789 0)
(0.230797 -0.126818 0)
(0.162358 -0.181199 0)
(0.0818402 -0.249374 0)
(0.0020459 -0.323479 0)
(-0.0464015 -0.365616 0)
(-0.0185011 -0.252227 0)
(0.00098188 0.256059 0)
(0.021697 0.296612 0)
(0.1353 0.222444 0)
(0.258747 0.154336 0)
(0.359128 0.105654 0)
(0.435885 0.0719479 0)
(0.493012 0.0484875 0)
(0.533852 0.0316433 0)
(0.560995 0.01882 0)
(0.57623 0.00820271 0)
(0.580421 -0.00156437 0)
(0.573655 -0.0117308 0)
(0.554891 -0.0239002 0)
(0.52211 -0.0399716 0)
(0.471975 -0.0630241 0)
(0.399754 -0.0977872 0)
(0.299473 -0.150741 0)
(0.169443 -0.227839 0)
(0.0408162 -0.314328 0)
(0.00501444 -0.274289 0)
(0.267416 0.116491 0)
(0.377133 0.101432 0)
(0.538777 0.0535714 0)
(0.658122 0.0285244 0)
(0.7321 0.016535 0)
(0.779105 0.00983191 0)
(0.809996 0.00583607 0)
(0.830152 0.00339145 0)
(0.842618 0.00179066 0)
(0.849163 0.000617283 0)
(0.850501 -0.000416497 0)
(0.847094 -0.00142185 0)
(0.837995 -0.00281115 0)
(0.821659 -0.00490581 0)
(0.795181 -0.00836689 0)
(0.752856 -0.0144178 0)
(0.683132 -0.0256868 0)
(0.565492 -0.0500999 0)
(0.398162 -0.0994446 0)
(0.276536 -0.118106 0)
)
;

boundaryField
{
    movingWall
    {
        type            fixedValue;
        value           uniform (1 0 0);
    }
    fixedWalls
    {
        type            noSlip;
    }
    frontAndBack
    {
        type            empty;
    }
}


// ************************************************************************* //
