/*--------------------------------*- C++ -*----------------------------------*\
| =========                 |                                                 |
| \\      /  F ield         | OpenFOAM: The Open Source CFD Toolbox           |
|  \\    /   O peration     | Version:  5.0                                   |
|   \\  /    A nd           | Web:      www.OpenFOAM.org                      |
|    \\/     M anipulation  |                                                 |
\*---------------------------------------------------------------------------*/
FoamFile
{
    version     2.0;
    format      ascii;
    class       volScalarField;
    location    "4.5";
    object      k;
}
// * * * * * * * * * * * * * * * * * * * * * * * * * * * * * * * * * * * * * //

dimensions      [0 2 -2 0 0 0 0];

internalField   nonuniform List<scalar> 
400
(
4.88883e-10
3.96154e-09
1.10733e-08
5.69763e-08
2.83366e-07
8.21228e-07
1.57926e-06
2.41841e-06
3.2942e-06
4.18377e-06
5.14111e-06
6.19421e-06
7.54309e-06
9.16306e-06
9.84364e-06
9.96411e-06
8.13432e-06
4.45033e-06
2.03394e-06
9.77653e-07
6.5339e-09
9.59123e-08
3.12209e-07
9.89638e-07
2.89628e-06
7.51366e-06
1.63876e-05
2.94691e-05
4.57778e-05
6.21932e-05
7.83209e-05
8.98695e-05
9.62881e-05
9.83878e-05
9.68565e-05
8.42246e-05
6.43208e-05
3.19085e-05
1.1286e-05
4.03988e-06
6.07622e-08
6.22321e-07
1.81691e-06
5.29936e-06
1.51229e-05
3.92776e-05
8.24074e-05
0.000147813
0.000208848
0.000259472
0.00029599
0.000313928
0.000321182
0.000321503
0.000301445
0.000271113
0.000208302
0.000115223
3.29357e-05
8.15176e-06
2.57069e-07
2.14197e-06
5.94929e-06
1.81063e-05
5.30423e-05
0.00013732
0.000236574
0.000316952
0.000368142
0.000408511
0.000430867
0.000444714
0.00044975
0.000450515
0.000449408
0.00043832
0.000401598
0.000281973
7.72941e-05
1.17229e-05
5.69852e-07
4.70561e-06
1.47913e-05
4.93284e-05
0.000130436
0.00023489
0.000308895
0.000354517
0.00038243
0.000404904
0.000417731
0.000428664
0.000439807
0.000455196
0.000470574
0.000477059
0.000476629
0.000414353
0.000143034
1.45667e-05
1.23699e-06
1.05491e-05
3.25189e-05
8.90501e-05
0.000186626
0.000275281
0.000318911
0.000346145
0.000355604
0.000354961
0.000346893
0.000343936
0.00035423
0.000376526
0.000416622
0.000469811
0.000493631
0.000468722
0.000222644
1.62557e-05
1.67929e-06
1.50185e-05
4.60798e-05
0.000115534
0.00021652
0.000281075
0.000308464
0.000314737
0.000295909
0.000270365
0.000248095
0.000234021
0.000227404
0.000237021
0.000274968
0.000358513
0.000466715
0.000483461
0.00026984
1.69719e-05
1.77713e-06
1.91523e-05
5.62915e-05
0.000133056
0.000230431
0.000274525
0.000283925
0.000268422
0.000230525
0.00018887
0.000151848
0.000127242
0.000117278
0.000119555
0.000141418
0.000196806
0.000375282
0.00047312
0.000306331
1.72123e-05
1.62905e-06
2.00155e-05
5.95729e-05
0.000139696
0.000228707
0.000259358
0.000256667
0.000223341
0.000170536
0.000118584
8.78759e-05
7.51751e-05
7.24378e-05
7.69396e-05
8.97956e-05
0.000119449
0.000242029
0.000416518
0.000321695
1.71424e-05
1.21938e-06
1.93007e-05
5.82416e-05
0.00013735
0.000222901
0.000244696
0.000232279
0.000187209
0.000124127
7.97555e-05
6.11324e-05
5.63606e-05
5.91723e-05
6.48772e-05
7.36504e-05
9.05984e-05
0.000163513
0.000374791
0.000326582
1.64824e-05
9.23503e-07
1.73305e-05
5.41412e-05
0.000130076
0.000210185
0.000229906
0.000211923
0.000157714
9.55249e-05
6.21713e-05
5.14787e-05
5.03555e-05
5.47656e-05
6.25129e-05
7.02377e-05
8.36786e-05
0.00012884
0.00033369
0.000323008
1.56917e-05
6.97384e-07
1.34055e-05
4.57497e-05
0.000115561
0.000194045
0.000214308
0.00019876
0.000147567
9.00371e-05
5.90751e-05
4.87147e-05
4.84633e-05
5.26128e-05
6.40634e-05
7.28732e-05
8.43478e-05
0.000117247
0.000296152
0.000293132
1.48222e-05
4.95859e-07
9.12874e-06
3.47289e-05
9.35688e-05
0.00016904
0.00019526
0.000187908
0.000151109
9.59921e-05
6.35436e-05
5.08475e-05
4.93899e-05
5.22918e-05
6.53641e-05
8.16311e-05
9.49173e-05
0.000115921
0.000271167
0.000263884
1.44e-05
3.06629e-07
5.37075e-06
2.37293e-05
6.99756e-05
0.000142854
0.000176396
0.000175723
0.000159785
0.000115977
7.84465e-05
5.98765e-05
5.61104e-05
5.87628e-05
6.97866e-05
8.69093e-05
0.000104237
0.000118684
0.000250183
0.000220139
1.4205e-05
1.50555e-07
2.69706e-06
1.37699e-05
4.30916e-05
0.00010711
0.0001502
0.000159016
0.000155647
0.000141915
0.000112657
8.65198e-05
7.59048e-05
7.72453e-05
8.59034e-05
9.67142e-05
0.000109256
0.00012018
0.000226073
0.000176528
1.38054e-05
6.23533e-08
1.35407e-06
7.37259e-06
2.42634e-05
6.88468e-05
0.000116386
0.000139501
0.000144537
0.000141015
0.000131765
0.000116973
0.000104916
9.83884e-05
9.87772e-05
0.0001012
0.000110653
0.00012036
0.000200865
0.000141048
1.24069e-05
2.54208e-08
6.53785e-07
3.74002e-06
1.23608e-05
3.34485e-05
7.37784e-05
0.000101998
0.000119981
0.000127195
0.000125596
0.000120511
0.000111508
0.000105703
0.000101407
0.000101811
0.000107225
0.000117396
0.000165409
0.000102651
1.17399e-05
4.19787e-08
4.51243e-07
2.01698e-06
6.11868e-06
1.5269e-05
3.56617e-05
5.80932e-05
7.3512e-05
8.61007e-05
9.41333e-05
9.42336e-05
9.25635e-05
8.81419e-05
8.53747e-05
8.80348e-05
9.92679e-05
0.000115963
0.000148202
7.30178e-05
1.00736e-05
1.76278e-07
9.23411e-07
2.11295e-06
4.77202e-06
9.02691e-06
1.74877e-05
2.98509e-05
4.05564e-05
5.24428e-05
6.39635e-05
7.76594e-05
8.59423e-05
0.000101224
0.000113145
0.000139816
0.00015946
0.000191509
0.000152421
4.89558e-05
8.10937e-06
8.149e-08
1.65583e-07
3.85693e-07
7.59087e-07
1.10112e-06
1.66027e-06
2.87557e-06
3.69242e-06
4.95399e-06
5.52956e-06
7.16412e-06
8.15901e-06
1.0188e-05
1.06188e-05
1.15802e-05
1.11876e-05
1.0281e-05
9.48711e-06
7.92245e-06
4.62653e-06
)
;

boundaryField
{
    movingWall
    {
        type            kqRWallFunction;
        value           nonuniform List<scalar> 
20
(
8.149e-08
1.65583e-07
3.85693e-07
7.59087e-07
1.10112e-06
1.66027e-06
2.87557e-06
3.69242e-06
4.95399e-06
5.52956e-06
7.16412e-06
8.15901e-06
1.0188e-05
1.06188e-05
1.15802e-05
1.11876e-05
1.0281e-05
9.48711e-06
7.92245e-06
4.62653e-06
)
;
    }
    fixedWalls
    {
        type            kqRWallFunction;
        value           nonuniform List<scalar> 
60
(
4.88883e-10
6.5339e-09
6.07622e-08
2.57069e-07
5.69852e-07
1.23699e-06
1.67929e-06
1.77713e-06
1.62905e-06
1.21938e-06
9.23503e-07
6.97384e-07
4.95859e-07
3.06629e-07
1.50555e-07
6.23533e-08
2.54208e-08
4.19787e-08
1.76278e-07
8.149e-08
9.77653e-07
4.03988e-06
8.15176e-06
1.17229e-05
1.45667e-05
1.62557e-05
1.69719e-05
1.72123e-05
1.71424e-05
1.64824e-05
1.56917e-05
1.48222e-05
1.44e-05
1.4205e-05
1.38054e-05
1.24069e-05
1.17399e-05
1.00736e-05
8.10937e-06
4.62653e-06
4.88883e-10
3.96154e-09
1.10733e-08
5.69763e-08
2.83366e-07
8.21228e-07
1.57926e-06
2.41841e-06
3.2942e-06
4.18377e-06
5.14111e-06
6.19421e-06
7.54309e-06
9.16306e-06
9.84364e-06
9.96411e-06
8.13432e-06
4.45033e-06
2.03394e-06
9.77653e-07
)
;
    }
    frontAndBack
    {
        type            empty;
    }
}


// ************************************************************************* //
