/*--------------------------------*- C++ -*----------------------------------*\
| =========                 |                                                 |
| \\      /  F ield         | OpenFOAM: The Open Source CFD Toolbox           |
|  \\    /   O peration     | Version:  5.0                                   |
|   \\  /    A nd           | Web:      www.OpenFOAM.org                      |
|    \\/     M anipulation  |                                                 |
\*---------------------------------------------------------------------------*/
FoamFile
{
    version     2.0;
    format      ascii;
    class       volScalarField;
    location    "4.5";
    object      nut;
}
// * * * * * * * * * * * * * * * * * * * * * * * * * * * * * * * * * * * * * //

dimensions      [0 2 -1 0 0 0 0];

internalField   nonuniform List<scalar> 
400
(
3.8194e-12
3.09496e-11
8.65102e-11
4.45127e-10
2.2138e-09
6.41585e-09
1.2338e-08
1.88938e-08
2.57359e-08
3.26857e-08
4.01649e-08
4.83923e-08
5.89304e-08
7.15864e-08
7.69034e-08
7.78446e-08
6.35494e-08
3.47682e-08
1.58902e-08
7.63791e-09
5.10461e-11
2.5916e-09
5.67532e-09
1.34247e-08
3.70052e-08
1.03448e-07
2.63415e-07
5.49062e-07
1.02163e-06
1.5663e-06
2.21631e-06
2.67979e-06
2.92353e-06
2.77742e-06
2.55337e-06
1.96396e-06
1.2787e-06
5.0497e-07
1.28378e-07
3.15615e-08
4.74705e-10
1.631e-08
3.75709e-08
1.025e-07
3.18018e-07
1.0602e-06
2.71437e-06
5.84374e-06
9.18397e-06
1.20817e-05
1.41113e-05
1.50168e-05
1.47723e-05
1.39139e-05
1.17529e-05
9.04668e-06
5.50305e-06
2.20705e-06
4.04251e-07
6.36856e-08
2.00835e-09
5.63239e-08
1.48707e-07
4.76248e-07
1.76025e-06
6.05718e-06
1.23586e-05
1.9209e-05
2.41376e-05
2.82935e-05
3.05562e-05
3.17486e-05
3.11381e-05
2.92293e-05
2.59851e-05
2.11738e-05
1.47515e-05
6.95666e-06
1.08034e-06
9.15852e-08
4.45197e-09
1.29611e-07
4.44218e-07
1.72609e-06
6.33996e-06
1.47132e-05
2.2598e-05
3.00309e-05
3.50328e-05
3.91144e-05
4.12207e-05
4.24277e-05
4.15782e-05
3.96629e-05
3.5735e-05
2.94861e-05
2.1602e-05
1.20584e-05
2.21064e-06
1.13802e-07
9.66401e-09
3.17688e-07
1.17414e-06
4.01288e-06
1.21189e-05
2.24002e-05
3.05196e-05
3.79016e-05
4.17528e-05
4.31685e-05
4.2606e-05
4.13434e-05
4.01523e-05
3.94063e-05
3.86853e-05
3.61003e-05
2.74625e-05
1.62707e-05
3.7939e-06
1.26998e-07
1.31194e-08
4.93088e-07
1.93064e-06
6.4045e-06
1.73266e-05
2.7913e-05
3.62271e-05
4.08156e-05
4.00588e-05
3.70526e-05
3.34066e-05
3.01051e-05
2.76162e-05
2.69145e-05
2.83537e-05
3.1263e-05
2.92671e-05
1.85339e-05
4.90179e-06
1.32593e-07
1.38838e-08
6.6553e-07
2.70737e-06
8.6212e-06
2.14553e-05
3.16664e-05
3.75777e-05
3.77224e-05
3.28513e-05
2.64834e-05
2.05635e-05
1.65288e-05
1.46061e-05
1.4125e-05
1.55198e-05
1.93605e-05
2.71667e-05
2.06136e-05
5.9179e-06
1.34471e-07
1.2727e-08
7.37698e-07
3.13621e-06
1.00879e-05
2.33979e-05
3.26239e-05
3.59323e-05
3.22448e-05
2.45054e-05
1.67244e-05
1.21659e-05
1.03099e-05
9.78339e-06
9.91746e-06
1.05812e-05
1.26463e-05
1.93216e-05
1.96639e-05
6.48949e-06
1.33925e-07
9.52643e-09
7.01718e-07
3.3249e-06
1.0623e-05
2.42208e-05
3.22687e-05
3.33571e-05
2.72886e-05
1.79921e-05
1.16303e-05
9.46295e-06
9.20803e-06
9.84259e-06
1.02422e-05
1.02059e-05
1.05008e-05
1.46989e-05
1.95381e-05
6.88776e-06
1.28769e-07
7.21487e-09
5.8176e-07
3.16677e-06
1.04479e-05
2.31146e-05
3.07863e-05
3.08094e-05
2.31699e-05
1.41031e-05
9.84628e-06
9.1328e-06
9.50117e-06
1.03816e-05
1.12193e-05
1.11914e-05
1.0393e-05
1.2365e-05
1.83219e-05
7.08463e-06
1.22591e-07
5.44831e-09
3.79352e-07
2.61385e-06
9.23505e-06
2.11091e-05
2.85501e-05
2.90174e-05
2.2003e-05
1.3817e-05
1.00185e-05
9.21124e-06
9.62243e-06
1.03596e-05
1.20031e-05
1.22568e-05
1.10033e-05
1.16402e-05
1.68072e-05
6.70155e-06
1.15799e-07
3.8739e-09
2.09749e-07
1.83758e-06
7.27051e-06
1.77949e-05
2.54783e-05
2.72644e-05
2.26277e-05
1.48918e-05
1.07652e-05
9.54427e-06
9.74887e-06
1.02934e-05
1.23422e-05
1.39173e-05
1.26264e-05
1.16255e-05
1.55615e-05
6.25721e-06
1.125e-07
2.39554e-09
1.00867e-07
1.08789e-06
5.08747e-06
1.42063e-05
2.2017e-05
2.49433e-05
2.37453e-05
1.78336e-05
1.30049e-05
1.08891e-05
1.07716e-05
1.12512e-05
1.28843e-05
1.46323e-05
1.38967e-05
1.17107e-05
1.42837e-05
5.28855e-06
1.10976e-07
1.17621e-09
4.2424e-08
4.95763e-07
2.74189e-06
9.59947e-06
1.72044e-05
2.14006e-05
2.24872e-05
2.13144e-05
1.77869e-05
1.47322e-05
1.37322e-05
1.39595e-05
1.50154e-05
1.54295e-05
1.38241e-05
1.12988e-05
1.23864e-05
4.17465e-06
1.07854e-07
4.87135e-10
2.13228e-08
2.16923e-07
1.24258e-06
5.27252e-06
1.16725e-05
1.68864e-05
1.94423e-05
2.00597e-05
1.95331e-05
1.82643e-05
1.73195e-05
1.62469e-05
1.5856e-05
1.49011e-05
1.29454e-05
1.04809e-05
1.03596e-05
3.20912e-06
9.69286e-08
1.986e-10
1.11344e-08
1.03811e-07
5.08795e-07
1.94811e-06
5.71091e-06
9.91565e-06
1.36542e-05
1.59249e-05
1.65649e-05
1.66155e-05
1.60747e-05
1.52044e-05
1.41286e-05
1.29596e-05
1.07903e-05
8.90848e-06
7.65635e-06
2.14429e-06
9.17176e-08
3.27958e-10
1.0216e-08
5.92329e-08
2.33045e-07
7.45113e-07
2.16036e-06
4.23687e-06
6.22392e-06
8.21102e-06
9.67716e-06
1.01663e-05
1.03249e-05
9.75555e-06
9.09492e-06
8.4415e-06
7.38254e-06
6.66243e-06
5.36536e-06
1.25831e-06
7.87003e-08
1.37717e-09
2.53353e-08
6.14161e-08
1.56286e-07
3.31398e-07
7.09254e-07
1.33337e-06
1.91448e-06
2.58657e-06
3.14837e-06
3.75612e-06
3.99446e-06
4.35841e-06
4.35979e-06
4.75526e-06
4.56463e-06
4.64846e-06
2.74766e-06
5.55012e-07
6.33544e-08
6.36641e-10
1.29362e-09
3.01323e-09
5.93036e-09
8.60247e-09
1.29709e-08
2.24654e-08
2.8847e-08
3.8703e-08
4.31997e-08
5.59697e-08
6.37423e-08
7.95941e-08
8.29597e-08
9.04703e-08
8.74034e-08
8.03206e-08
7.4118e-08
6.18941e-08
3.61448e-08
)
;

boundaryField
{
    movingWall
    {
        type            nutkWallFunction;
        Cmu             0.09;
        kappa           0.41;
        E               9.8;
        value           uniform 0;
    }
    fixedWalls
    {
        type            nutkWallFunction;
        Cmu             0.09;
        kappa           0.41;
        E               9.8;
        value           uniform 0;
    }
    frontAndBack
    {
        type            empty;
    }
}


// ************************************************************************* //
