/*--------------------------------*- C++ -*----------------------------------*\
| =========                 |                                                 |
| \\      /  F ield         | OpenFOAM: The Open Source CFD Toolbox           |
|  \\    /   O peration     | Version:  5.0                                   |
|   \\  /    A nd           | Web:      www.OpenFOAM.org                      |
|    \\/     M anipulation  |                                                 |
\*---------------------------------------------------------------------------*/
FoamFile
{
    version     2.0;
    format      ascii;
    class       volScalarField;
    location    "4.5";
    object      omega;
}
// * * * * * * * * * * * * * * * * * * * * * * * * * * * * * * * * * * * * * //

dimensions      [0 0 -1 0 0 0 0];

internalField   nonuniform List<scalar> 
400
(
128
128
128
128
128
128
128
128
128
128
128
128
128
128
128
128
128
128
128
128
128
37.0089
55.0117
73.7178
78.2668
72.6321
62.2123
53.6716
44.8088
39.7071
35.3384
33.536
32.9355
35.4241
37.9328
42.8851
50.3018
63.189
87.9125
128
128
38.1558
48.3596
51.7011
47.5536
37.0472
30.3597
25.2943
22.7405
21.4764
20.9754
20.9051
21.7422
23.1066
25.6486
29.9683
37.8521
52.2067
81.4733
128
128
38.0295
40.0069
38.0187
30.1335
22.6706
19.1425
16.5001
15.2518
14.4383
14.1008
14.0074
14.4437
15.4131
17.2948
20.701
27.2242
40.5328
71.5459
128
128
36.3058
33.2974
28.5781
20.5736
15.9646
13.6691
11.8051
10.9164
10.3518
10.134
10.1034
10.5778
11.4766
13.1684
16.1791
22.0641
34.3622
64.7026
128
128
33.2058
27.696
22.1911
15.3996
12.2892
10.4494
9.13273
8.51689
8.22269
8.14188
8.319
8.82217
9.55497
10.7695
13.0141
17.9747
28.8077
58.6848
128
128
30.458
23.8676
18.0395
12.4964
10.0697
8.51475
7.71119
7.38688
7.2968
7.42654
7.77346
8.23443
8.80645
9.69779
11.4676
15.9467
26.0852
55.0493
128
128
28.7775
20.7919
15.4336
10.74
8.6693
7.55569
7.11571
7.01725
7.13165
7.38433
7.69823
8.02935
8.46409
9.11214
10.1653
13.814
22.9519
51.7634
128
128
27.1324
18.9952
13.848
9.77468
7.94996
7.14306
6.92642
6.95913
7.09052
7.22315
7.29157
7.40416
7.758
8.48636
9.44534
12.5263
21.1819
49.5716
128
128
27.5049
17.5168
12.9295
9.20291
7.58307
6.9634
6.86032
6.89899
6.85753
6.46019
6.12082
6.01186
6.33429
7.21646
8.62778
11.1242
19.1826
47.4149
128
128
29.7898
17.0967
12.45
9.09317
7.46779
6.87851
6.80684
6.77332
6.31419
5.63668
5.29993
5.27526
5.57193
6.27606
8.05143
10.4197
18.2126
45.5929
128
128
35.3379
17.5028
12.5133
9.1925
7.50639
6.84967
6.70668
6.51638
5.8966
5.28862
5.0365
5.07865
5.33722
5.94554
7.66568
10.0726
17.6206
43.7409
128
128
43.5223
18.8993
12.8696
9.49934
7.66375
6.89206
6.67806
6.44598
5.90268
5.32754
5.06622
5.08011
5.296
5.86545
7.51739
9.97121
17.4255
42.1728
128
128
53.2459
21.8122
13.7545
10.0557
8.01183
7.04488
6.72915
6.50328
6.03208
5.49874
5.20909
5.22278
5.41642
5.93954
7.50089
10.1347
17.5153
41.6256
128
128
63.5739
27.7752
15.716
11.1579
8.73032
7.43045
6.92159
6.6582
6.33374
5.87284
5.52749
5.53354
5.72101
6.26814
7.90335
10.6365
18.2518
42.2858
128
128
63.5033
33.9872
19.5267
13.0577
9.97091
8.26114
7.43413
7.02974
6.74572
6.40443
6.05768
6.05584
6.22964
6.79145
8.54764
11.4838
19.3893
43.9523
128
128
58.7177
36.0271
24.2942
17.1697
12.9188
10.2866
8.78712
7.98719
7.58206
7.25291
6.93685
6.95214
7.17742
7.85605
9.93717
13.178
21.6041
47.8717
128
128
44.1703
34.0517
26.2554
20.4922
16.5073
13.7113
11.8112
10.486
9.72737
9.26922
8.96505
9.03505
9.38708
10.4288
13.4463
17.4055
27.6219
58.0284
128
128
36.4476
34.4039
30.534
27.2389
24.6564
22.3876
21.1841
20.275
20.3164
20.6754
21.5154
23.225
25.952
29.4024
34.9337
41.1982
55.4729
88.2067
128
128
128
128
128
128
128
128
128
128
128
128
128
128
128
128
128
128
128
128
128
)
;

boundaryField
{
    movingWall
    {
        Cmu             0.09;
        kappa           0.41;
        E               9.8;
        beta1           0.075;
        blended         false;
        type            omegaWallFunction;
        value           nonuniform List<scalar> 
20
(
128
128
128
128
128
128
128
128
128
128
128
128
128
128
128
128
128
128
128
128
)
;
    }
    fixedWalls
    {
        Cmu             0.09;
        kappa           0.41;
        E               9.8;
        beta1           0.075;
        blended         false;
        type            omegaWallFunction;
        value           nonuniform List<scalar> 
60
(
128
128
128
128
128
128
128
128
128
128
128
128
128
128
128
128
128
128
128
128
128
128
128
128
128
128
128
128
128
128
128
128
128
128
128
128
128
128
128
128
128
128
128
128
128
128
128
128
128
128
128
128
128
128
128
128
128
128
128
128
)
;
    }
    frontAndBack
    {
        type            empty;
    }
}


// ************************************************************************* //
