/*--------------------------------*- C++ -*----------------------------------*\
| =========                 |                                                 |
| \\      /  F ield         | OpenFOAM: The Open Source CFD Toolbox           |
|  \\    /   O peration     | Version:  5.0                                   |
|   \\  /    A nd           | Web:      www.OpenFOAM.org                      |
|    \\/     M anipulation  |                                                 |
\*---------------------------------------------------------------------------*/
FoamFile
{
    version     2.0;
    format      ascii;
    class       volScalarField;
    location    "4.5";
    object      p;
}
// * * * * * * * * * * * * * * * * * * * * * * * * * * * * * * * * * * * * * //

dimensions      [0 2 -2 0 0 0 0];

internalField   nonuniform List<scalar> 
400
(
2.93144e-08
-6.9111e-05
-0.000123584
-0.000287924
-0.000179888
-0.000555322
-0.00159171
-0.00284623
-0.00397662
-0.00484019
-0.00535129
-0.00545921
-0.00508351
-0.00414722
-0.00253412
-0.000198044
0.00280843
0.00611836
0.00867232
0.00956817
3.4017e-05
-2.95924e-05
-8.2775e-05
-0.000257566
-0.000698914
-0.00147156
-0.0025479
-0.00364962
-0.00467825
-0.00545125
-0.00591449
-0.00601072
-0.00570777
-0.00492646
-0.00356733
-0.00155977
0.00109962
0.00422416
0.00707808
0.00855603
0.000149619
4.01844e-05
-0.000242294
-0.000787317
-0.00163443
-0.0027111
-0.00384174
-0.00493612
-0.00588775
-0.00654802
-0.00691223
-0.00695731
-0.00666344
-0.00600453
-0.00494889
-0.0034267
-0.00136206
0.00124665
0.00411342
0.00596694
0.000263691
1.32201e-06
-0.000631899
-0.00162922
-0.00282822
-0.00407595
-0.00522424
-0.00617692
-0.00688299
-0.00736246
-0.00761389
-0.00762374
-0.00738172
-0.00687226
-0.00607664
-0.00496884
-0.00347944
-0.0015024
0.000899779
0.00273538
6.22231e-05
-0.000383384
-0.00133703
-0.0026598
-0.00401916
-0.00525404
-0.006263
-0.00704295
-0.00760722
-0.007993
-0.00819565
-0.00820615
-0.00800649
-0.00759502
-0.00697458
-0.0061496
-0.00509131
-0.00367846
-0.00198502
-0.000281628
-0.000550946
-0.00111119
-0.00226654
-0.00367944
-0.0050298
-0.00614916
-0.00700534
-0.00766591
-0.00815501
-0.00850104
-0.00869109
-0.00871303
-0.00854952
-0.00820509
-0.00769861
-0.00705544
-0.0062976
-0.00530313
-0.00419857
-0.00277354
-0.00147178
-0.00205269
-0.00323637
-0.00458222
-0.00583146
-0.00681492
-0.00755856
-0.00814717
-0.00860092
-0.00893731
-0.00913516
-0.00917263
-0.00903405
-0.00873171
-0.00829718
-0.00776452
-0.00720884
-0.00648296
-0.00583696
-0.00468689
-0.00243512
-0.00297998
-0.0040915
-0.00531513
-0.00644316
-0.00730824
-0.00797941
-0.00852999
-0.00897941
-0.00933742
-0.00956937
-0.009639
-0.00953479
-0.00926345
-0.0088688
-0.0083856
-0.00794784
-0.00736043
-0.00700726
-0.00609668
-0.00321599
-0.00371582
-0.00473697
-0.0058536
-0.0068784
-0.00765729
-0.00828927
-0.0088318
-0.00931001
-0.00973335
-0.0100446
-0.0101778
-0.010121
-0.00986665
-0.00947376
-0.00896897
-0.00857015
-0.00801664
-0.00783856
-0.00707855
-0.00373896
-0.00418318
-0.00512794
-0.00617583
-0.00713479
-0.00786889
-0.00849475
-0.00905838
-0.00959855
-0.0101265
-0.0105538
-0.0107737
-0.0107553
-0.0104891
-0.0100578
-0.00946029
-0.00906101
-0.00843059
-0.00840275
-0.00767248
-0.00396564
-0.00439207
-0.00526624
-0.00628054
-0.00720118
-0.00794095
-0.00858884
-0.00919389
-0.00980513
-0.0104271
-0.0109441
-0.0112291
-0.0112085
-0.0109111
-0.0104312
-0.00970847
-0.00932687
-0.00849923
-0.00872154
-0.00785127
-0.0039019
-0.00433334
-0.00516606
-0.0061589
-0.00708732
-0.00785407
-0.00853471
-0.00918517
-0.00984484
-0.0105081
-0.0110517
-0.011337
-0.0113103
-0.0109811
-0.0104501
-0.0096476
-0.00922743
-0.00820381
-0.00872334
-0.00757198
-0.00363763
-0.00409415
-0.00488626
-0.00582666
-0.0067783
-0.00757904
-0.00829729
-0.00898223
-0.00966356
-0.0103278
-0.0108578
-0.0111228
-0.0110721
-0.0107051
-0.0101183
-0.0092685
-0.00871731
-0.0076065
-0.00831493
-0.00679973
-0.00332789
-0.00375309
-0.00445644
-0.0052948
-0.00624409
-0.00708715
-0.00785155
-0.00856859
-0.00925454
-0.0098901
-0.0103827
-0.0106165
-0.0105363
-0.0101271
-0.00948399
-0.00858506
-0.00786364
-0.00676528
-0.00748039
-0.00558754
-0.00319082
-0.00346048
-0.0039552
-0.00461463
-0.00547155
-0.00635963
-0.00719249
-0.00795971
-0.00866003
-0.00927208
-0.00972567
-0.00991966
-0.00979988
-0.0093388
-0.00862551
-0.00765208
-0.00676452
-0.00572187
-0.00631972
-0.00401328
-0.0032406
-0.00325899
-0.00340095
-0.00379169
-0.00449161
-0.00539671
-0.00631812
-0.00717247
-0.0079251
-0.00854633
-0.00897859
-0.00913673
-0.00897144
-0.00845084
-0.00764933
-0.00658016
-0.00554887
-0.00455005
-0.00492151
-0.00209546
-0.0032093
-0.00301098
-0.00274365
-0.00281955
-0.00335973
-0.00425709
-0.0052673
-0.00623781
-0.00708611
-0.00776103
-0.00821044
-0.00836322
-0.00817112
-0.00759461
-0.00669705
-0.00551966
-0.00436141
-0.00331052
-0.0032756
0.000326794
-0.00303776
-0.0025945
-0.00195164
-0.00171894
-0.00214561
-0.00304506
-0.00413888
-0.00521669
-0.00616976
-0.00692356
-0.00741811
-0.00759024
-0.00740441
-0.00683355
-0.00589937
-0.00465371
-0.00330751
-0.00199224
-0.000966078
0.00466283
-0.00268411
-0.00212141
-0.00120999
-0.000816549
-0.00119778
-0.00208982
-0.00324256
-0.00441345
-0.00546818
-0.00629869
-0.00685731
-0.00708311
-0.00693968
-0.00638986
-0.00544175
-0.00413353
-0.0025324
-0.000237133
0.00446061
0.0165352
-0.00432839
-0.001541
-0.000342023
-0.000154927
-0.000554089
-0.00146343
-0.00265365
-0.0039148
-0.00504699
-0.00594272
-0.0065522
-0.00683381
-0.00675897
-0.00627675
-0.00528364
-0.00373061
-0.00103422
0.00485031
0.0178416
0.0395564
)
;

boundaryField
{
    movingWall
    {
        type            zeroGradient;
    }
    fixedWalls
    {
        type            zeroGradient;
    }
    frontAndBack
    {
        type            empty;
    }
}


// ************************************************************************* //
