/*--------------------------------*- C++ -*----------------------------------*\
| =========                 |                                                 |
| \\      /  F ield         | OpenFOAM: The Open Source CFD Toolbox           |
|  \\    /   O peration     | Version:  5.0                                   |
|   \\  /    A nd           | Web:      www.OpenFOAM.org                      |
|    \\/     M anipulation  |                                                 |
\*---------------------------------------------------------------------------*/
FoamFile
{
    version     2.0;
    format      ascii;
    class       surfaceScalarField;
    location    "4.5";
    object      phi;
}
// * * * * * * * * * * * * * * * * * * * * * * * * * * * * * * * * * * * * * //

dimensions      [0 3 -1 0 0 0 0];

internalField   nonuniform List<scalar> 
760
(
1.8171e-07
-1.81713e-07
2.59769e-07
-7.80588e-08
8.76532e-08
1.72116e-07
-5.536e-07
6.41254e-07
-1.83963e-06
1.28603e-06
-3.30143e-06
1.4618e-06
-4.51903e-06
1.2176e-06
-5.53914e-06
1.02011e-06
-6.27664e-06
7.37503e-07
-6.84068e-06
5.64036e-07
-7.19387e-06
3.5319e-07
-7.39938e-06
2.05518e-07
-7.41594e-06
1.65581e-08
-7.25646e-06
-1.59481e-07
-6.8812e-06
-3.75261e-07
-6.19663e-06
-6.84573e-07
-5.10121e-06
-1.09541e-06
-3.48103e-06
-1.62018e-06
-1.43743e-06
-2.0436e-06
-1.43743e-06
-2.67445e-08
-1.54969e-07
-4.39738e-07
3.34935e-07
-1.46784e-06
1.20022e-06
-2.98421e-06
2.15763e-06
-4.28369e-06
2.58551e-06
-5.13383e-06
2.31194e-06
-5.91277e-06
1.99654e-06
-6.48299e-06
1.59033e-06
-6.97823e-06
1.23274e-06
-7.294e-06
8.79806e-07
-7.49003e-06
5.49221e-07
-7.52079e-06
2.36286e-07
-7.42251e-06
-8.17284e-08
-7.20201e-06
-3.79976e-07
-6.81559e-06
-7.61686e-07
-6.2262e-06
-1.27396e-06
-5.32119e-06
-2.00042e-06
-3.95975e-06
-2.98162e-06
-2.06461e-06
-3.93875e-06
-3.50203e-06
-4.38509e-07
2.8354e-07
-1.4196e-06
1.31603e-06
-2.78269e-06
2.5633e-06
-3.89518e-06
3.27012e-06
-4.61549e-06
3.30583e-06
-5.18182e-06
2.87826e-06
-5.58926e-06
2.40398e-06
-5.81859e-06
1.81965e-06
-5.92571e-06
1.33986e-06
-5.91037e-06
8.64469e-07
-5.86122e-06
5.00063e-07
-5.77803e-06
1.53105e-07
-5.66801e-06
-1.91749e-07
-5.47067e-06
-5.7732e-07
-5.19315e-06
-1.0392e-06
-4.81407e-06
-1.65305e-06
-4.27414e-06
-2.54035e-06
-3.41552e-06
-3.84024e-06
-2.01051e-06
-5.34376e-06
-5.51254e-06
-8.27015e-07
1.11056e-06
-2.05519e-06
2.54421e-06
-3.14624e-06
3.65434e-06
-3.84319e-06
3.96707e-06
-4.24749e-06
3.71012e-06
-4.44302e-06
3.0738e-06
-4.46499e-06
2.42594e-06
-4.43297e-06
1.78764e-06
-4.3918e-06
1.29869e-06
-4.3707e-06
8.43369e-07
-4.32676e-06
4.56125e-07
-4.24736e-06
7.37008e-08
-4.12005e-06
-3.19053e-07
-3.9389e-06
-7.58474e-07
-3.69962e-06
-1.27848e-06
-3.40367e-06
-1.94899e-06
-3.0502e-06
-2.89382e-06
-2.5529e-06
-4.33754e-06
-1.60794e-06
-6.28873e-06
-7.12048e-06
-9.99993e-07
2.11055e-06
-2.06813e-06
3.61235e-06
-2.78829e-06
4.3745e-06
-3.22479e-06
4.40357e-06
-3.38252e-06
3.86785e-06
-3.38948e-06
3.08077e-06
-3.36073e-06
2.39718e-06
-3.34988e-06
1.77679e-06
-3.34202e-06
1.29084e-06
-3.33613e-06
8.37474e-07
-3.30269e-06
4.2269e-07
-3.23087e-06
1.87689e-09
-3.09942e-06
-4.50505e-07
-2.9128e-06
-9.45089e-07
-2.67566e-06
-1.51562e-06
-2.40791e-06
-2.21674e-06
-2.15895e-06
-3.14278e-06
-1.89594e-06
-4.60056e-06
-1.25292e-06
-6.93175e-06
-8.3734e-06
-8.9184e-07
3.00239e-06
-1.70845e-06
4.42896e-06
-2.20725e-06
4.8733e-06
-2.47915e-06
4.67548e-06
-2.52757e-06
3.91627e-06
-2.5254e-06
3.0786e-06
-2.52167e-06
2.39345e-06
-2.54638e-06
1.8015e-06
-2.57401e-06
1.31847e-06
-2.59678e-06
8.60241e-07
-2.5881e-06
4.14017e-07
-2.52895e-06
-5.72721e-08
-2.40376e-06
-5.75694e-07
-2.21384e-06
-1.13502e-06
-1.97663e-06
-1.75283e-06
-1.71069e-06
-2.48269e-06
-1.46492e-06
-3.38855e-06
-1.23307e-06
-4.8324e-06
-9.54264e-07
-7.21055e-06
-9.32766e-06
-6.73733e-07
3.67612e-06
-1.23132e-06
4.98654e-06
-1.58746e-06
5.22944e-06
-1.76104e-06
4.84906e-06
-1.80051e-06
3.95574e-06
-1.82411e-06
3.10219e-06
-1.86106e-06
2.4304e-06
-1.92318e-06
1.86362e-06
-1.994e-06
1.38928e-06
-2.06441e-06
9.30651e-07
-2.10178e-06
4.51394e-07
-2.07479e-06
-8.42599e-08
-1.96158e-06
-6.88906e-07
-1.76674e-06
-1.32986e-06
-1.5234e-06
-1.99617e-06
-1.2632e-06
-2.74288e-06
-1.04992e-06
-3.60183e-06
-8.85339e-07
-4.99698e-06
-7.14541e-07
-7.38135e-06
-1.00422e-05
-4.16632e-07
4.09275e-06
-7.80762e-07
5.35067e-06
-1.02473e-06
5.47341e-06
-1.13845e-06
4.96278e-06
-1.18718e-06
4.00447e-06
-1.24152e-06
3.15654e-06
-1.31444e-06
2.50332e-06
-1.41796e-06
1.96714e-06
-1.54859e-06
1.51992e-06
-1.69367e-06
1.07572e-06
-1.79987e-06
5.57596e-07
-1.8114e-06
-7.27229e-08
-1.71886e-06
-7.81446e-07
-1.51833e-06
-1.53039e-06
-1.24823e-06
-2.26627e-06
-9.63664e-07
-3.02745e-06
-7.36271e-07
-3.82923e-06
-6.03814e-07
-5.12944e-06
-5.49575e-07
-7.43559e-06
-1.05918e-05
-1.82152e-07
4.2749e-06
-3.725e-07
5.54102e-06
-5.15061e-07
5.61597e-06
-5.86905e-07
5.03462e-06
-6.49185e-07
4.06675e-06
-7.29428e-07
3.23678e-06
-8.37464e-07
2.61136e-06
-9.88298e-07
2.11797e-06
-1.18511e-06
1.71673e-06
-1.39857e-06
1.28919e-06
-1.55358e-06
7.12606e-07
-1.58359e-06
-4.27186e-08
-1.51523e-06
-8.49803e-07
-1.33729e-06
-1.70833e-06
-1.06857e-06
-2.53499e-06
-7.79661e-07
-3.31636e-06
-5.45446e-07
-4.06344e-06
-4.4394e-07
-5.23095e-06
-4.22058e-07
-7.45747e-06
-1.10138e-05
6.44078e-08
4.2105e-06
-1.36114e-08
5.61904e-06
-5.76065e-08
5.65996e-06
-1.08675e-07
5.08569e-06
-1.64359e-07
4.12244e-06
-2.60337e-07
3.33276e-06
-3.88341e-07
2.73936e-06
-5.58843e-07
2.28847e-06
-7.67597e-07
1.92548e-06
-9.65319e-07
1.48691e-06
-1.09417e-06
8.41455e-07
-1.13151e-06
-5.38191e-09
-1.09388e-06
-8.87433e-07
-9.84345e-07
-1.81786e-06
-7.90996e-07
-2.72834e-06
-5.61059e-07
-3.5463e-06
-3.52329e-07
-4.27217e-06
-2.78805e-07
-5.30447e-06
-3.44947e-07
-7.39133e-06
-1.13588e-05
2.61339e-07
3.94916e-06
3.70255e-07
5.51013e-06
4.11199e-07
5.61902e-06
3.8048e-07
5.11641e-06
3.15811e-07
4.18711e-06
2.27144e-07
3.42143e-06
1.17179e-07
2.84933e-06
-2.2793e-08
2.42844e-06
-1.72687e-07
2.07538e-06
-2.88016e-07
1.60224e-06
-3.52734e-07
9.06173e-07
-3.93131e-07
3.5015e-08
-3.92054e-07
-8.88509e-07
-3.79235e-07
-1.83068e-06
-3.17712e-07
-2.78986e-06
-2.45936e-07
-3.61807e-06
-1.20715e-07
-4.39739e-06
-1.54105e-07
-5.27108e-06
-2.68058e-07
-7.27738e-06
-1.16268e-05
4.76395e-07
3.47276e-06
7.16257e-07
5.27026e-06
8.42874e-07
5.4924e-06
8.41507e-07
5.11777e-06
7.85112e-07
4.2435e-06
7.2801e-07
3.47853e-06
6.69664e-07
2.90767e-06
6.12387e-07
2.48572e-06
5.62867e-07
2.1249e-06
5.33764e-07
1.63134e-06
5.12675e-07
9.27262e-07
4.67735e-07
7.99555e-08
4.20928e-07
-8.41702e-07
3.44266e-07
-1.75402e-06
2.69863e-07
-2.71546e-06
1.69724e-07
-3.51793e-06
1.48867e-07
-4.37654e-06
-4.50459e-08
-5.07717e-06
-2.14031e-07
-7.10839e-06
-1.18409e-05
6.64897e-07
2.80787e-06
1.03439e-06
4.90077e-06
1.26554e-06
5.26126e-06
1.35735e-06
5.02596e-06
1.31435e-06
4.2865e-06
1.28834e-06
3.50453e-06
1.28759e-06
2.90842e-06
1.31591e-06
2.45741e-06
1.36593e-06
2.07487e-06
1.40708e-06
1.59019e-06
1.4054e-06
9.2894e-07
1.34274e-06
1.42618e-07
1.23418e-06
-7.33143e-07
1.07191e-06
-1.59175e-06
8.59575e-07
-2.50312e-06
6.67003e-07
-3.32536e-06
4.11416e-07
-4.12095e-06
9.84985e-08
-4.76425e-06
-9.8724e-08
-6.91117e-06
-1.19396e-05
8.57209e-07
1.95066e-06
1.31687e-06
4.44111e-06
1.59023e-06
4.9879e-06
1.77384e-06
4.84235e-06
1.81798e-06
4.24237e-06
1.84991e-06
3.4726e-06
1.90607e-06
2.85226e-06
1.99765e-06
2.36584e-06
2.11576e-06
1.95676e-06
2.21291e-06
1.49304e-06
2.24189e-06
8.99961e-07
2.17911e-06
2.05391e-07
2.02805e-06
-5.82079e-07
1.79578e-06
-1.35948e-06
1.4825e-06
-2.18985e-06
1.16434e-06
-3.0072e-06
7.19496e-07
-3.67611e-06
3.00651e-07
-4.3454e-06
3.36887e-08
-6.64421e-06
-1.19059e-05
9.00543e-07
1.05011e-06
1.51338e-06
3.82827e-06
1.9159e-06
4.58538e-06
2.22919e-06
4.52906e-06
2.38303e-06
4.08853e-06
2.47317e-06
3.38247e-06
2.5707e-06
2.75472e-06
2.69536e-06
2.24117e-06
2.84275e-06
1.80937e-06
2.96584e-06
1.36996e-06
3.01539e-06
8.50413e-07
2.95285e-06
2.6793e-07
2.7721e-06
-4.0133e-07
2.49139e-06
-1.07876e-06
2.10161e-06
-1.80007e-06
1.65734e-06
-2.56293e-06
1.0632e-06
-3.08197e-06
5.10095e-07
-3.7923e-06
1.70198e-07
-6.30431e-06
-1.17357e-05
5.99504e-07
4.5061e-07
1.39939e-06
3.02838e-06
1.98185e-06
4.00291e-06
2.47594e-06
4.03497e-06
2.84209e-06
3.72237e-06
3.06787e-06
3.15669e-06
3.23928e-06
2.58332e-06
3.39968e-06
2.08077e-06
3.56085e-06
1.6482e-06
3.68592e-06
1.24489e-06
3.73746e-06
7.98869e-07
3.67564e-06
3.29753e-07
3.48455e-06
-2.10245e-07
3.17537e-06
-7.69577e-07
2.72293e-06
-1.34764e-06
2.15557e-06
-1.99557e-06
1.43379e-06
-2.36019e-06
7.44379e-07
-3.10289e-06
3.58198e-07
-5.91813e-06
-1.13775e-05
2.20283e-07
2.30327e-07
1.08672e-06
2.16195e-06
1.85695e-06
3.23268e-06
2.56858e-06
3.32334e-06
3.16492e-06
3.12603e-06
3.60492e-06
2.71669e-06
3.92809e-06
2.26014e-06
4.1716e-06
1.83726e-06
4.36679e-06
1.45302e-06
4.49778e-06
1.1139e-06
4.54862e-06
7.48027e-07
4.48227e-06
3.96104e-07
4.26027e-06
1.17576e-08
3.90514e-06
-4.14445e-07
3.36959e-06
-8.12086e-07
2.66062e-06
-1.2866e-06
1.82105e-06
-1.52062e-06
1.07721e-06
-2.35904e-06
6.84869e-07
-5.52579e-06
-1.06926e-05
-3.72784e-07
6.03111e-07
4.2027e-07
1.3689e-06
1.3332e-06
2.31975e-06
2.30477e-06
2.35178e-06
3.14276e-06
2.28804e-06
3.83218e-06
2.02727e-06
4.36663e-06
1.7257e-06
4.77266e-06
1.43122e-06
5.0585e-06
1.16719e-06
5.23693e-06
9.35459e-07
5.28856e-06
6.96403e-07
5.2071e-06
4.77559e-07
4.99796e-06
2.20904e-07
4.60081e-06
-1.73015e-08
4.01723e-06
-2.28507e-07
3.21291e-06
-4.82282e-07
2.36461e-06
-6.72314e-07
1.70015e-06
-1.69459e-06
1.21963e-06
-5.04527e-06
-9.47301e-06
-1.18389e-06
1.787e-06
-7.14876e-07
8.99879e-07
4.8723e-07
1.11764e-06
1.69617e-06
1.14284e-06
2.79911e-06
1.1851e-06
3.7355e-06
1.09088e-06
4.46452e-06
9.9668e-07
5.04228e-06
8.53451e-07
5.45383e-06
7.55637e-07
5.75531e-06
6.33982e-07
5.89716e-06
5.54551e-07
5.92495e-06
4.49767e-07
5.76233e-06
3.83524e-07
5.46655e-06
2.78487e-07
5.01934e-06
2.18702e-07
4.48058e-06
5.647e-08
3.99663e-06
-1.88357e-07
3.55167e-06
-1.24963e-06
2.46579e-06
-3.95938e-06
-7.00722e-06
1.787e-06
2.68688e-06
3.80453e-06
4.94736e-06
6.13247e-06
7.22334e-06
8.22002e-06
9.07347e-06
9.82911e-06
1.04631e-05
1.10176e-05
1.14674e-05
1.18509e-05
1.21294e-05
1.23481e-05
1.24046e-05
1.22162e-05
1.09666e-05
7.00722e-06
)
;

boundaryField
{
    movingWall
    {
        type            calculated;
        value           uniform 0;
    }
    fixedWalls
    {
        type            calculated;
        value           uniform 0;
    }
    frontAndBack
    {
        type            empty;
        value           nonuniform 0();
    }
}


// ************************************************************************* //
