/*--------------------------------*- C++ -*----------------------------------*\
| =========                 |                                                 |
| \\      /  F ield         | OpenFOAM: The Open Source CFD Toolbox           |
|  \\    /   O peration     | Version:  5.0                                   |
|   \\  /    A nd           | Web:      www.OpenFOAM.org                      |
|    \\/     M anipulation  |                                                 |
\*---------------------------------------------------------------------------*/
FoamFile
{
    version     2.0;
    format      ascii;
    class       volVectorField;
    location    "4.5";
    object      U;
}
// * * * * * * * * * * * * * * * * * * * * * * * * * * * * * * * * * * * * * //

dimensions      [0 1 -1 0 0 0 0];

internalField   nonuniform List<vector> 
400
(
(0.00221402 -0.00244598 0)
(0.00455553 -0.00218534 0)
(0.00657802 -0.00135547 0)
(-0.00386723 0.001016 0)
(-0.0155432 0.00835483 0)
(-0.0557612 0.0170034 0)
(-0.0809826 0.011633 0)
(-0.104459 0.0117737 0)
(-0.120043 0.00852531 0)
(-0.133158 0.00770481 0)
(-0.141675 0.00527596 0)
(-0.14733 0.00431231 0)
(-0.149696 0.00247629 0)
(-0.149125 -2.17654e-05 0)
(-0.142489 -0.00244367 0)
(-0.131175 -0.00648558 0)
(-0.11146 -0.0110207 0)
(-0.0835378 -0.0156974 0)
(-0.0485726 -0.0177082 0)
(-0.0132993 -0.00485355 0)
(0.00130667 -0.00516849 0)
(-0.00257058 -0.000811836 0)
(-0.0140368 0.00910753 0)
(-0.0429623 0.0272045 0)
(-0.0750784 0.0420281 0)
(-0.0966679 0.0375953 0)
(-0.113108 0.0334275 0)
(-0.125399 0.026775 0)
(-0.136542 0.019477 0)
(-0.143702 0.0137982 0)
(-0.149213 0.00800136 0)
(-0.151256 0.00323031 0)
(-0.151451 -0.00211459 0)
(-0.147901 -0.00755963 0)
(-0.14203 -0.0147456 0)
(-0.130726 -0.0241594 0)
(-0.114814 -0.0370608 0)
(-0.0905062 -0.0538326 0)
(-0.059296 -0.0666153 0)
(-0.0220081 -0.0489281 0)
(-0.00186091 -0.000567829 0)
(-0.0150111 0.015097 0)
(-0.0404391 0.039584 0)
(-0.0698199 0.0563097 0)
(-0.0877182 0.0589945 0)
(-0.099916 0.0524248 0)
(-0.109128 0.0438251 0)
(-0.115968 0.0335905 0)
(-0.118633 0.0262072 0)
(-0.118475 0.0181138 0)
(-0.118302 0.011361 0)
(-0.116477 0.00452105 0)
(-0.115084 -0.00209207 0)
(-0.112289 -0.0094848 0)
(-0.107896 -0.0185155 0)
(-0.101308 -0.031039 0)
(-0.0912584 -0.0490373 0)
(-0.0758879 -0.073601 0)
(-0.0520636 -0.0995879 0)
(-0.0229937 -0.0984587 0)
(-0.00503168 0.0131765 0)
(-0.0268281 0.0397825 0)
(-0.0553032 0.0644887 0)
(-0.0729831 0.0723247 0)
(-0.0833813 0.0696962 0)
(-0.0889798 0.0593859 0)
(-0.0902548 0.0487832 0)
(-0.0891378 0.036702 0)
(-0.0878709 0.0267185 0)
(-0.0877956 0.0173595 0)
(-0.0871839 0.0097097 0)
(-0.0859925 0.0022985 0)
(-0.0840721 -0.00493092 0)
(-0.0809877 -0.0130063 0)
(-0.0769791 -0.0227408 0)
(-0.0719907 -0.035688 0)
(-0.0656792 -0.0546891 0)
(-0.0556691 -0.0841279 0)
(-0.0404272 -0.120122 0)
(-0.0183844 -0.129899 0)
(-0.00708209 0.0324953 0)
(-0.031989 0.0618015 0)
(-0.0524068 0.0801308 0)
(-0.0624244 0.0834576 0)
(-0.0689214 0.075901 0)
(-0.0680527 0.0620927 0)
(-0.0676175 0.0489707 0)
(-0.0666428 0.0361587 0)
(-0.066872 0.0261946 0)
(-0.0668631 0.0169772 0)
(-0.0666503 0.0088582 0)
(-0.0656178 0.000719868 0)
(-0.0635826 -0.00769061 0)
(-0.0603583 -0.0169867 0)
(-0.0561485 -0.027795 0)
(-0.0512978 -0.041282 0)
(-0.0463326 -0.0596975 0)
(-0.0393438 -0.0890012 0)
(-0.0339186 -0.135339 0)
(-0.0102475 -0.158926 0)
(-0.00581708 0.0502994 0)
(-0.029201 0.080694 0)
(-0.0419473 0.0922995 0)
(-0.0495015 0.0907097 0)
(-0.0518728 0.0781784 0)
(-0.0497853 0.0620418 0)
(-0.0503597 0.0481769 0)
(-0.0502446 0.0359377 0)
(-0.0512983 0.026154 0)
(-0.0518116 0.0169939 0)
(-0.052156 0.00835185 0)
(-0.0514722 -0.000616792 0)
(-0.0495813 -0.0101162 0)
(-0.0463459 -0.0205448 0)
(-0.0419857 -0.0323749 0)
(-0.0369696 -0.0465951 0)
(-0.0325384 -0.064727 0)
(-0.0249458 -0.0934052 0)
(-0.0259883 -0.14063 0)
(-0.00686207 -0.177293 0)
(-0.00431554 0.0665044 0)
(-0.0221793 0.0933913 0)
(-0.0298904 0.100195 0)
(-0.035992 0.0950907 0)
(-0.0363132 0.0788926 0)
(-0.0352938 0.0619205 0)
(-0.0367664 0.0482382 0)
(-0.0374949 0.0366058 0)
(-0.0392818 0.0269736 0)
(-0.0407409 0.0177968 0)
(-0.0420239 0.00856535 0)
(-0.0420998 -0.00145941 0)
(-0.0406142 -0.0123214 0)
(-0.0374284 -0.0240906 0)
(-0.0328965 -0.0368715 0)
(-0.0274409 -0.051712 0)
(-0.0242222 -0.0695167 0)
(-0.0160734 -0.098034 0)
(-0.0220532 -0.146364 0)
(-0.002025 -0.194443 0)
(-0.00156669 0.0774398 0)
(-0.0147349 0.103502 0)
(-0.0188746 0.107282 0)
(-0.0238544 0.0981665 0)
(-0.0232092 0.0795885 0)
(-0.0235014 0.0625652 0)
(-0.0254338 0.0492606 0)
(-0.0269953 0.0381877 0)
(-0.0297548 0.0289037 0)
(-0.0326775 0.0198634 0)
(-0.0354119 0.00997277 0)
(-0.0365072 -0.00159408 0)
(-0.0355535 -0.0145094 0)
(-0.0324825 -0.0282702 0)
(-0.0277714 -0.0421834 0)
(-0.0210657 -0.0573426 0)
(-0.0188593 -0.0738295 0)
(-0.00859998 -0.100632 0)
(-0.0182397 -0.147558 0)
(-4.94623e-05 -0.205504 0)
(0.000359448 0.0845912 0)
(-0.00737157 0.108968 0)
(-0.0092049 0.110583 0)
(-0.0126292 0.0997659 0)
(-0.011956 0.0805225 0)
(-0.0131888 0.0637948 0)
(-0.0154404 0.0509687 0)
(-0.0178645 0.0405874 0)
(-0.0218372 0.0319702 0)
(-0.0263793 0.0232042 0)
(-0.030256 0.012313 0)
(-0.0317633 -0.00140236 0)
(-0.0311569 -0.0170746 0)
(-0.0284354 -0.0333906 0)
(-0.0244634 -0.0489114 0)
(-0.0166559 -0.0642338 0)
(-0.016175 -0.0792919 0)
(-0.00349531 -0.104405 0)
(-0.0168657 -0.149138 0)
(0.00308871 -0.216779 0)
(0.00364472 0.0855782 0)
(-0.000800776 0.112508 0)
(-7.15017e-05 0.113753 0)
(-0.0026902 0.101417 0)
(-0.00216125 0.0818914 0)
(-0.00386801 0.0655743 0)
(-0.00617697 0.053295 0)
(-0.00905408 0.0437275 0)
(-0.0135217 0.035917 0)
(-0.0181924 0.0271761 0)
(-0.0214606 0.0149461 0)
(-0.0225051 -0.000759505 0)
(-0.0222952 -0.0186662 0)
(-0.0203241 -0.0371022 0)
(-0.0185718 -0.0545948 0)
(-0.0109831 -0.0702426 0)
(-0.0134233 -0.0843636 0)
(0.00159047 -0.106038 0)
(-0.015293 -0.148784 0)
(0.0044882 -0.223957 0)
(0.00554962 0.0829627 0)
(0.00525747 0.112107 0)
(0.0081257 0.113235 0)
(0.00708896 0.101655 0)
(0.00747691 0.0828668 0)
(0.00574229 0.0672607 0)
(0.00368332 0.0555932 0)
(0.00124604 0.0468398 0)
(-0.00223959 0.0397227 0)
(-0.00531111 0.0306884 0)
(-0.00700768 0.017299 0)
(-0.00751975 0.000338061 0)
(-0.0078465 -0.0184146 0)
(-0.00701304 -0.0376131 0)
(-0.00827578 -0.0566878 0)
(-0.00258197 -0.0729959 0)
(-0.00914381 -0.0883953 0)
(0.00616647 -0.106595 0)
(-0.0148412 -0.14778 0)
(0.00728398 -0.231295 0)
(0.00788936 0.0764053 0)
(0.0108907 0.110106 0)
(0.0160744 0.112442 0)
(0.0160497 0.10315 0)
(0.0166655 0.0842446 0)
(0.0154941 0.0690567 0)
(0.014192 0.0577115 0)
(0.0129092 0.0493783 0)
(0.0112086 0.0422941 0)
(0.0102885 0.0325693 0)
(0.0100854 0.0184285 0)
(0.00998718 0.00107681 0)
(0.00903129 -0.0174566 0)
(0.00854686 -0.0361522 0)
(0.00478988 -0.0555892 0)
(0.00775223 -0.0719847 0)
(-0.00270207 -0.0887138 0)
(0.0111169 -0.103583 0)
(-0.0146064 -0.145052 0)
(0.0094624 -0.234855 0)
(0.00937521 0.0651248 0)
(0.0160914 0.102934 0)
(0.0235963 0.107959 0)
(0.0257633 0.101744 0)
(0.027058 0.084948 0)
(0.0263254 0.0695545 0)
(0.0258031 0.0581309 0)
(0.0258756 0.0497046 0)
(0.0261234 0.0425736 0)
(0.0270582 0.0328857 0)
(0.0278454 0.0190573 0)
(0.02791 0.00228369 0)
(0.0261632 -0.0155917 0)
(0.0243374 -0.033384 0)
(0.0184951 -0.0523181 0)
(0.0187015 -0.0688456 0)
(0.00486003 -0.0852574 0)
(0.0158316 -0.0986767 0)
(-0.0146682 -0.140132 0)
(0.0134191 -0.237943 0)
(0.0121896 0.0499316 0)
(0.0207786 0.0961342 0)
(0.0303233 0.103902 0)
(0.0329514 0.100042 0)
(0.0361179 0.0863833 0)
(0.0369207 0.0704059 0)
(0.0374745 0.0582582 0)
(0.0387352 0.0490296 0)
(0.0404345 0.0412977 0)
(0.0427321 0.0318883 0)
(0.0442955 0.0191746 0)
(0.0448241 0.00386286 0)
(0.0425312 -0.0127387 0)
(0.0398994 -0.0290793 0)
(0.0322865 -0.0465898 0)
(0.0301604 -0.0631802 0)
(0.0132489 -0.0779848 0)
(0.0208051 -0.0911518 0)
(-0.0138054 -0.13475 0)
(0.0173738 -0.237676 0)
(0.0116942 0.0275744 0)
(0.0240561 0.0811953 0)
(0.0356963 0.0955824 0)
(0.041562 0.0937831 0)
(0.0456202 0.0840579 0)
(0.048397 0.0687349 0)
(0.0502063 0.0560039 0)
(0.0523225 0.046066 0)
(0.0547368 0.0377919 0)
(0.057662 0.0288675 0)
(0.0595274 0.0178128 0)
(0.0604501 0.00490533 0)
(0.0577154 -0.00957416 0)
(0.0545439 -0.0239691 0)
(0.0457406 -0.0394834 0)
(0.0416058 -0.0553463 0)
(0.0222667 -0.0673088 0)
(0.0259922 -0.0814495 0)
(-0.0121941 -0.129342 0)
(0.0231593 -0.23759 0)
(0.00288319 0.012339 0)
(0.0220875 0.0702384 0)
(0.0354891 0.0879736 0)
(0.0448484 0.0877851 0)
(0.0525926 0.0806566 0)
(0.0586182 0.0677748 0)
(0.0626603 0.0550183 0)
(0.0660618 0.0442343 0)
(0.06902 0.0352564 0)
(0.0721963 0.0266893 0)
(0.0739163 0.0170148 0)
(0.0749512 0.00641217 0)
(0.0720213 -0.00559926 0)
(0.0687626 -0.0178218 0)
(0.0592745 -0.0307572 0)
(0.0530593 -0.0450948 0)
(0.0321355 -0.0539175 0)
(0.0308526 -0.0692315 0)
(-0.0090388 -0.123108 0)
(0.0298249 -0.23607 0)
(-0.00523553 0.00514295 0)
(0.0147513 0.0492514 0)
(0.0314302 0.0717013 0)
(0.0445902 0.0745396 0)
(0.0565048 0.0698788 0)
(0.0669385 0.06037 0)
(0.0747749 0.0499257 0)
(0.0806888 0.0401116 0)
(0.0848227 0.031351 0)
(0.0885634 0.0234937 0)
(0.0900648 0.0151451 0)
(0.0912178 0.00681226 0)
(0.0878561 -0.00270966 0)
(0.0841752 -0.0121201 0)
(0.0735201 -0.021573 0)
(0.0648894 -0.032594 0)
(0.0420178 -0.0387508 0)
(0.0358016 -0.0555576 0)
(-0.00224612 -0.118924 0)
(0.0393449 -0.234521 0)
(-0.0133692 0.00382914 0)
(-0.000289808 0.0387405 0)
(0.0192542 0.0601303 0)
(0.0364345 0.0622601 0)
(0.0534406 0.0591391 0)
(0.0689893 0.0518721 0)
(0.08127 0.0436044 0)
(0.0913021 0.0362066 0)
(0.0977149 0.0292688 0)
(0.103087 0.0231733 0)
(0.10491 0.0165174 0)
(0.106184 0.0103709 0)
(0.102422 0.00340657 0)
(0.0986145 -0.0031905 0)
(0.0871795 -0.00937638 0)
(0.0768156 -0.0173129 0)
(0.052372 -0.020647 0)
(0.0437781 -0.0421334 0)
(0.0119383 -0.116801 0)
(0.0523195 -0.225585 0)
(-0.0210456 0.0250525 0)
(-0.0248982 0.0150368 0)
(-0.000503152 0.0303997 0)
(0.0213753 0.0321749 0)
(0.0442223 0.0327705 0)
(0.0652142 0.0300783 0)
(0.0813854 0.0263352 0)
(0.0950653 0.0221213 0)
(0.104548 0.0182026 0)
(0.112322 0.0148656 0)
(0.116384 0.0113553 0)
(0.118919 0.00841311 0)
(0.117588 0.00509435 0)
(0.114133 0.0025423 0)
(0.105536 -0.000200891 0)
(0.097161 -0.00334078 0)
(0.077446 -0.00964296 0)
(0.0727406 -0.03471 0)
(0.0521587 -0.105279 0)
(0.0767353 -0.177639 0)
(0.0394354 0.0365513 0)
(0.0430355 0.0238925 0)
(0.0604389 0.0184997 0)
(0.0878821 0.0161674 0)
(0.108967 0.0169495 0)
(0.133189 0.0156243 0)
(0.152544 0.0154992 0)
(0.172586 0.0135095 0)
(0.188205 0.0132284 0)
(0.203032 0.0112596 0)
(0.214524 0.0111581 0)
(0.225066 0.0091973 0)
(0.232964 0.0094075 0)
(0.239864 0.00755905 0)
(0.244189 0.00822676 0)
(0.246811 0.00607065 0)
(0.243867 0.00459056 0)
(0.232493 -0.00242579 0)
(0.195805 -0.0145691 0)
(0.146125 -0.0349967 0)
)
;

boundaryField
{
    movingWall
    {
        type            fixedValue;
        value           uniform (1 0 0);
    }
    fixedWalls
    {
        type            noSlip;
    }
    frontAndBack
    {
        type            empty;
    }
}


// ************************************************************************* //
