/*--------------------------------*- C++ -*----------------------------------*\
  =========                 |
  \\      /  F ield         | OpenFOAM: The Open Source CFD Toolbox
   \\    /   O peration     | Website:  https://openfoam.org
    \\  /    A nd           | Version:  6
     \\/     M anipulation  |
\*---------------------------------------------------------------------------*/
FoamFile
{
    version     2.0;
    format      ascii;
    class       volVectorField;
    location    "0.1";
    object      wallShearStress;
}
// * * * * * * * * * * * * * * * * * * * * * * * * * * * * * * * * * * * * * //

dimensions      [0 2 -2 0 0 0 0];

internalField   uniform (0 0 0);

boundaryField
{
    movingWall
    {
        type            calculated;
        value           nonuniform List<vector> 
20
(
(3.07072 -1.24297 0)
(2.3409 -0.850401 0)
(1.68669 -0.590481 0)
(1.25184 -0.357595 0)
(0.996241 -0.211606 0)
(0.835572 -0.12906 0)
(0.729163 -0.0803409 0)
(0.65907 -0.0493157 0)
(0.615343 -0.0277614 0)
(0.592326 -0.0110067 0)
(0.587316 0.00394981 0)
(0.599906 0.0195399 0)
(0.631927 0.0385879 0)
(0.688193 0.0655219 0)
(0.778057 0.108542 0)
(0.919267 0.184882 0)
(1.15326 0.329419 0)
(1.57619 0.575534 0)
(2.25607 0.863637 0)
(3.03746 1.28018 0)
)
;
    }
    fixedWalls
    {
        type            calculated;
        value           nonuniform List<vector> 
60
(
(-0.00159102 0.000812564 0)
(0.00130505 0.00142572 0)
(0.00518736 -0.00346526 0)
(0.00869489 -0.0129624 0)
(0.0118363 -0.0264149 0)
(0.014826 -0.0435466 0)
(0.0178711 -0.0643249 0)
(0.021158 -0.08891 0)
(0.0248757 -0.117629 0)
(0.0292734 -0.150977 0)
(0.0347696 -0.189679 0)
(0.0421442 -0.234863 0)
(0.052867 -0.288423 0)
(0.0695958 -0.353701 0)
(0.0967345 -0.436699 0)
(0.140263 -0.548719 0)
(0.20054 -0.714575 0)
(0.222123 -0.989503 0)
(-0.11151 -1.45476 0)
(-1.88796 -2.27335 0)
(-0.00171655 -0.000811071 0)
(0.00103801 -0.00161947 0)
(0.00479876 0.00294568 0)
(0.00820898 0.0120136 0)
(0.0113133 0.0249833 0)
(0.0143902 0.0416855 0)
(0.0177325 0.0622828 0)
(0.0216269 0.0872351 0)
(0.0263742 0.117278 0)
(0.0323447 0.153429 0)
(0.0400772 0.197043 0)
(0.0504551 0.249949 0)
(0.0649948 0.314761 0)
(0.0862221 0.395434 0)
(0.117901 0.498201 0)
(0.163951 0.633843 0)
(0.218284 0.825131 0)
(0.209772 1.11564 0)
(-0.183874 1.53501 0)
(-1.95155 2.26718 0)
(-0.000856064 0.00156239 0)
(-0.0013483 -0.00153736 0)
(0.00388179 -0.00536102 0)
(0.0132421 -0.00807918 0)
(0.0249421 -0.00943768 0)
(0.037368 -0.00954315 0)
(0.049117 -0.0085944 0)
(0.0590385 -0.00681467 0)
(0.0662486 -0.00442438 0)
(0.0701261 -0.00163977 0)
(0.0703198 0.00131761 0)
(0.0667603 0.00420998 0)
(0.0596876 0.00677638 0)
(0.0496759 0.00873473 0)
(0.0376501 0.00979403 0)
(0.0248789 0.00968322 0)
(0.0129194 0.00820351 0)
(0.00350651 0.00531234 0)
(-0.00156711 0.00138396 0)
(-0.000883743 -0.00167171 0)
)
;
    }
    frontAndBack
    {
        type            empty;
    }
}


// ************************************************************************* //
