/*--------------------------------*- C++ -*----------------------------------*\
| =========                 |                                                 |
| \\      /  F ield         | OpenFOAM: The Open Source CFD Toolbox           |
|  \\    /   O peration     | Version:  5.0                                   |
|   \\  /    A nd           | Web:      www.OpenFOAM.org                      |
|    \\/     M anipulation  |                                                 |
\*---------------------------------------------------------------------------*/
FoamFile
{
    version     2.0;
    format      ascii;
    class       volScalarField;
    location    "1.5";
    object      k;
}
// * * * * * * * * * * * * * * * * * * * * * * * * * * * * * * * * * * * * * //

dimensions      [0 2 -2 0 0 0 0];

internalField   nonuniform List<scalar> 
400
(
1.07985e-07
1.05447e-06
2.03121e-06
2.43801e-06
2.62441e-06
2.76442e-06
2.92209e-06
3.14258e-06
3.48254e-06
4.01083e-06
4.79043e-06
5.80578e-06
6.71464e-06
7.25082e-06
7.78139e-06
8.11419e-06
4.77656e-06
1.59552e-06
4.5458e-07
7.9531e-08
1.32862e-06
2.2598e-05
4.32846e-05
5.06799e-05
5.36873e-05
5.56557e-05
5.77581e-05
6.08404e-05
6.60259e-05
7.46932e-05
8.8265e-05
0.000107836
0.000123148
0.000126655
0.000109779
5.3985e-05
1.82207e-05
6.99109e-06
1.99171e-06
2.85498e-07
5.02619e-06
8.57585e-05
0.000172995
0.000207621
0.000222209
0.000230336
0.000238037
0.000248279
0.00026354
0.000285579
0.000304065
0.000308926
0.000291948
0.000221603
0.000100413
3.32015e-05
1.78549e-05
1.37455e-05
4.7171e-06
1.1836e-06
9.25823e-06
0.00014955
0.000301878
0.000368246
0.000398582
0.000414605
0.000427221
0.000441548
0.000459731
0.00047159
0.000471605
0.000441826
0.000347438
0.00016847
5.37957e-05
3.64988e-05
5.10903e-05
5.51379e-05
2.07714e-05
6.14175e-06
1.25214e-05
0.000196371
0.000394288
0.000484464
0.000527728
0.00055093
0.000567814
0.000585092
0.0006009
0.000604696
0.000586035
0.000508252
0.000323429
0.000113229
6.57803e-05
9.42731e-05
0.000151917
0.000158609
7.71124e-05
1.87459e-05
1.4502e-05
0.00022673
0.000456787
0.000565085
0.000618741
0.000648131
0.000668767
0.000688387
0.000701204
0.000700325
0.000662115
0.000538518
0.000281249
0.000111242
0.000101355
0.000228006
0.000321488
0.000333313
0.000217077
3.57936e-05
1.53958e-05
0.000244143
0.000496547
0.000618597
0.000680776
0.000715334
0.000739016
0.000760059
0.000771553
0.000767152
0.000714658
0.000557274
0.000256175
0.000124162
0.000134725
0.000281936
0.000392314
0.000466828
0.000433917
5.18042e-05
1.55063e-05
0.000252242
0.000519509
0.000651904
0.00072086
0.000759535
0.000785447
0.000807212
0.000818454
0.000812783
0.000755858
0.000589188
0.000273016
0.000127423
0.000127321
0.000240908
0.000318556
0.000524048
0.000636627
6.60922e-05
1.52468e-05
0.000254592
0.000530658
0.000670586
0.000744563
0.000786219
0.000813479
0.000835315
0.000846849
0.000842324
0.000790726
0.000637053
0.000322973
0.000133699
0.000108844
0.000156317
0.000193482
0.00054177
0.000839582
7.94581e-05
1.47542e-05
0.000253872
0.000534436
0.000679328
0.000756586
0.00080004
0.00082778
0.000849089
0.000861091
0.000858963
0.000818262
0.000695755
0.000426114
0.000164215
0.000103599
0.000110449
0.000166736
0.000581515
0.00103388
9.14309e-05
1.43155e-05
0.00025222
0.000534423
0.000682048
0.000760948
0.000804967
0.000832168
0.000852069
0.000864245
0.000864655
0.000835903
0.000747181
0.000553973
0.000248476
0.000127681
0.000109006
0.000178925
0.000743884
0.00117202
0.000101426
1.41047e-05
0.000251333
0.000533736
0.000681918
0.000760865
0.000804661
0.000831383
0.000850484
0.000862676
0.000864267
0.000843894
0.000781796
0.000650733
0.000412237
0.000208866
0.000151223
0.000263181
0.000989091
0.00126852
0.000111826
1.41874e-05
0.00025214
0.000534143
0.000681617
0.000759783
0.000802818
0.000828509
0.000846222
0.000857979
0.000860712
0.00084555
0.000800732
0.000708569
0.000546016
0.00035024
0.000245657
0.000406651
0.00121417
0.00130049
0.000122471
1.48126e-05
0.000256479
0.000537247
0.000682389
0.000758643
0.000800198
0.000824923
0.00084177
0.000853032
0.000856095
0.000844952
0.000809534
0.000739029
0.000622052
0.000469468
0.000364328
0.000557464
0.00131604
0.00130818
0.000138046
1.5977e-05
0.000264596
0.000544542
0.000685364
0.00075927
0.000800361
0.000825325
0.000842564
0.00085424
0.00085784
0.000848306
0.000818721
0.000758522
0.000663891
0.000543339
0.000469364
0.000667646
0.00135406
0.00126347
0.000157241
1.89482e-05
0.00028264
0.000556547
0.000690732
0.000762957
0.000805184
0.000832816
0.000853369
0.000868474
0.000875872
0.000870616
0.000848648
0.000801037
0.000722381
0.000620769
0.000578696
0.000752036
0.001361
0.00119468
0.000179079
2.2201e-05
0.000299762
0.000569102
0.000702323
0.000778885
0.000830561
0.000869995
0.000904341
0.00093329
0.000956531
0.000966836
0.000962763
0.000940096
0.000890898
0.000819598
0.000807956
0.000941676
0.00141402
0.00113013
0.000191527
3.18078e-05
0.00033869
0.000599261
0.000750203
0.000859535
0.000953421
0.00103489
0.00111767
0.00118916
0.00126345
0.00131861
0.00137091
0.00140095
0.00142008
0.00141621
0.00143154
0.00151281
0.00168661
0.00103336
0.000195631
3.97003e-05
0.000362068
0.000740109
0.00105545
0.00131637
0.00157713
0.00178491
0.00202386
0.00219488
0.00241006
0.00254862
0.00273444
0.00284762
0.00299901
0.00309402
0.00309343
0.00291014
0.00218944
0.000777109
0.000195991
1.94399e-05
6.48011e-05
0.000146343
0.000214447
0.000268078
0.000312996
0.000349782
0.000379702
0.000411242
0.000431917
0.00046275
0.000477001
0.000506264
0.000515273
0.00053568
0.000522927
0.000481094
0.000407295
0.000323584
0.000172442
)
;

boundaryField
{
    movingWall
    {
        type            kqRWallFunction;
        value           nonuniform List<scalar> 
20
(
1.94399e-05
6.48011e-05
0.000146343
0.000214447
0.000268078
0.000312996
0.000349782
0.000379702
0.000411242
0.000431917
0.00046275
0.000477001
0.000506264
0.000515273
0.00053568
0.000522927
0.000481094
0.000407295
0.000323584
0.000172442
)
;
    }
    fixedWalls
    {
        type            kqRWallFunction;
        value           nonuniform List<scalar> 
60
(
1.07985e-07
1.32862e-06
5.02619e-06
9.25823e-06
1.25214e-05
1.4502e-05
1.53958e-05
1.55063e-05
1.52468e-05
1.47542e-05
1.43155e-05
1.41047e-05
1.41874e-05
1.48126e-05
1.5977e-05
1.89482e-05
2.2201e-05
3.18078e-05
3.97003e-05
1.94399e-05
7.9531e-08
2.85498e-07
1.1836e-06
6.14175e-06
1.87459e-05
3.57936e-05
5.18042e-05
6.60922e-05
7.94581e-05
9.14309e-05
0.000101426
0.000111826
0.000122471
0.000138046
0.000157241
0.000179079
0.000191527
0.000195631
0.000195991
0.000172442
1.07985e-07
1.05447e-06
2.03121e-06
2.43801e-06
2.62441e-06
2.76442e-06
2.92209e-06
3.14258e-06
3.48254e-06
4.01083e-06
4.79043e-06
5.80578e-06
6.71464e-06
7.25082e-06
7.78139e-06
8.11419e-06
4.77656e-06
1.59552e-06
4.5458e-07
7.9531e-08
)
;
    }
    frontAndBack
    {
        type            empty;
    }
}


// ************************************************************************* //
