/*--------------------------------*- C++ -*----------------------------------*\
| =========                 |                                                 |
| \\      /  F ield         | OpenFOAM: The Open Source CFD Toolbox           |
|  \\    /   O peration     | Version:  5.0                                   |
|   \\  /    A nd           | Web:      www.OpenFOAM.org                      |
|    \\/     M anipulation  |                                                 |
\*---------------------------------------------------------------------------*/
FoamFile
{
    version     2.0;
    format      ascii;
    class       volScalarField;
    location    "1.5";
    object      nut;
}
// * * * * * * * * * * * * * * * * * * * * * * * * * * * * * * * * * * * * * //

dimensions      [0 2 -1 0 0 0 0];

internalField   nonuniform List<scalar> 
400
(
8.43635e-10
8.23805e-09
1.58689e-08
1.90469e-08
2.05032e-08
2.15971e-08
2.28289e-08
2.45514e-08
2.72073e-08
3.13346e-08
3.74252e-08
4.53577e-08
5.24582e-08
5.6647e-08
6.07921e-08
6.33921e-08
3.73169e-08
1.2465e-08
3.55141e-09
6.21336e-10
1.03798e-08
6.28868e-07
1.3315e-06
1.51412e-06
1.57122e-06
1.60027e-06
1.6279e-06
1.67754e-06
1.78627e-06
2.00245e-06
2.38753e-06
3.05306e-06
3.85181e-06
4.49532e-06
4.11664e-06
1.93281e-06
5.36198e-07
1.65816e-07
3.26367e-08
2.23045e-09
3.92671e-08
3.52394e-06
1.06078e-05
1.30345e-05
1.37808e-05
1.4093e-05
1.43597e-05
1.47805e-05
1.55802e-05
1.69741e-05
1.85941e-05
1.95994e-05
1.87221e-05
1.3258e-05
4.70946e-06
1.11301e-06
4.36789e-07
2.66911e-07
6.46861e-08
9.2469e-09
7.23299e-08
6.71676e-06
2.43635e-05
3.28435e-05
3.58878e-05
3.71397e-05
3.79373e-05
3.88879e-05
4.0263e-05
4.11606e-05
4.07857e-05
3.63229e-05
2.42148e-05
8.80932e-06
1.89854e-06
9.22125e-07
1.09766e-06
9.67585e-07
2.51858e-07
4.79824e-08
9.78238e-08
9.01985e-06
3.5481e-05
5.12191e-05
5.76427e-05
6.0338e-05
6.18229e-05
6.30798e-05
6.38739e-05
6.26092e-05
5.6974e-05
4.25387e-05
2.0622e-05
4.79196e-06
1.91368e-06
2.30273e-06
3.43852e-06
2.88163e-06
9.28755e-07
1.46452e-07
1.13297e-07
1.04372e-05
4.29594e-05
6.50703e-05
7.51055e-05
7.94121e-05
8.15842e-05
8.28468e-05
8.22742e-05
7.80877e-05
6.62164e-05
4.33706e-05
1.56893e-05
4.06757e-06
3.0291e-06
6.61069e-06
9.51559e-06
8.07813e-06
2.97968e-06
2.79638e-07
1.20279e-07
1.1195e-05
4.74812e-05
7.44164e-05
8.77e-05
9.35801e-05
9.63905e-05
9.74745e-05
9.55392e-05
8.85294e-05
7.16497e-05
4.30194e-05
1.33935e-05
4.5788e-06
4.52282e-06
1.01493e-05
1.49743e-05
1.5113e-05
7.31893e-06
4.0472e-07
1.21143e-07
1.14698e-05
4.98323e-05
8.01556e-05
9.60782e-05
0.00010337
0.000106758
0.000107699
0.000104853
9.6113e-05
7.67959e-05
4.61586e-05
1.46681e-05
5.00926e-06
4.79129e-06
9.72503e-06
1.34938e-05
1.96187e-05
1.25418e-05
5.16345e-07
1.19115e-07
1.14665e-05
5.07833e-05
8.32907e-05
0.00010119
0.000109673
0.000113554
0.000114488
0.000111314
0.000102116
8.26898e-05
5.21327e-05
1.87777e-05
5.81423e-06
4.47904e-06
6.64227e-06
8.54797e-06
2.15422e-05
1.84631e-05
6.20767e-07
1.15267e-07
1.13265e-05
5.08653e-05
8.46938e-05
0.000103973
0.000113386
0.000117669
0.000118724
0.000115726
0.000107087
8.9442e-05
6.17063e-05
2.8386e-05
8.15175e-06
4.63061e-06
4.86969e-06
7.47238e-06
2.34066e-05
2.39098e-05
7.14304e-07
1.1184e-07
1.11595e-05
5.05476e-05
8.50802e-05
0.000105239
0.000115293
0.000119842
0.000121026
0.000118496
0.000110996
9.60056e-05
7.23246e-05
4.25304e-05
1.46224e-05
6.39452e-06
5.12663e-06
8.16568e-06
2.98524e-05
2.75621e-05
7.92393e-07
1.10193e-07
1.10532e-05
5.02273e-05
8.50322e-05
0.000105627
0.00011608
0.000120875
0.000122316
0.000120374
0.000114069
0.000101668
8.21827e-05
5.69855e-05
2.90874e-05
1.21262e-05
7.94586e-06
1.28829e-05
4.00522e-05
2.97957e-05
8.7364e-07
1.10839e-07
1.10674e-05
5.01601e-05
8.49933e-05
0.000105742
0.000116375
0.000121269
0.000122853
0.000121454
0.000116369
0.000106235
9.03915e-05
6.93895e-05
4.5264e-05
2.41267e-05
1.48076e-05
2.17389e-05
4.99312e-05
2.95151e-05
9.56806e-07
1.15723e-07
1.12812e-05
5.05013e-05
8.51562e-05
0.000105691
0.000116158
0.000121007
0.000122709
0.000121829
0.000117891
0.000109855
9.69012e-05
7.93056e-05
5.86932e-05
3.80462e-05
2.55061e-05
3.31752e-05
5.54523e-05
2.95236e-05
1.07848e-06
1.2482e-07
1.17146e-05
5.14037e-05
8.56153e-05
0.000105597
0.000115805
0.000120573
0.000122312
0.000121697
0.000118451
0.000112146
0.000102014
8.74511e-05
6.95491e-05
5.06916e-05
3.82457e-05
4.50315e-05
5.93674e-05
2.86179e-05
1.22845e-06
1.48033e-07
1.27235e-05
5.30391e-05
8.59635e-05
0.000104807
0.000114281
0.000118728
0.000120446
0.000120206
0.000117841
0.000112791
0.000104702
9.31915e-05
7.89032e-05
6.30243e-05
5.29505e-05
5.47052e-05
6.0812e-05
2.68764e-05
1.39906e-06
1.73445e-07
1.38092e-05
5.39777e-05
8.4498e-05
0.000100621
0.00010838
0.000111911
0.000113371
0.000113574
0.00011252
0.000109711
0.000104816
9.78132e-05
8.80161e-05
7.65042e-05
6.91858e-05
6.58182e-05
6.15728e-05
2.43123e-05
1.4963e-06
2.48499e-07
1.58104e-05
5.20246e-05
7.45385e-05
8.50448e-05
8.99776e-05
9.23548e-05
9.38829e-05
9.48919e-05
9.56169e-05
9.56452e-05
9.4871e-05
9.32022e-05
8.98967e-05
8.57652e-05
8.07642e-05
7.35112e-05
5.68748e-05
1.8783e-05
1.52837e-06
3.10159e-07
1.38104e-05
3.54318e-05
4.73056e-05
5.39834e-05
5.89873e-05
6.22493e-05
6.56261e-05
6.7888e-05
7.05638e-05
7.23581e-05
7.43117e-05
7.57165e-05
7.65388e-05
7.73792e-05
7.45843e-05
6.50573e-05
3.92784e-05
9.43104e-06
1.53118e-06
1.51874e-07
5.06259e-07
1.14331e-06
1.67536e-06
2.09436e-06
2.44528e-06
2.73268e-06
2.96643e-06
3.21283e-06
3.37435e-06
3.61523e-06
3.72657e-06
3.95519e-06
4.02557e-06
4.185e-06
4.08536e-06
3.75855e-06
3.182e-06
2.528e-06
1.3472e-06
)
;

boundaryField
{
    movingWall
    {
        type            nutkWallFunction;
        Cmu             0.09;
        kappa           0.41;
        E               9.8;
        value           uniform 0;
    }
    fixedWalls
    {
        type            nutkWallFunction;
        Cmu             0.09;
        kappa           0.41;
        E               9.8;
        value           uniform 0;
    }
    frontAndBack
    {
        type            empty;
    }
}


// ************************************************************************* //
