/*--------------------------------*- C++ -*----------------------------------*\
| =========                 |                                                 |
| \\      /  F ield         | OpenFOAM: The Open Source CFD Toolbox           |
|  \\    /   O peration     | Version:  5.0                                   |
|   \\  /    A nd           | Web:      www.OpenFOAM.org                      |
|    \\/     M anipulation  |                                                 |
\*---------------------------------------------------------------------------*/
FoamFile
{
    version     2.0;
    format      ascii;
    class       volScalarField;
    location    "1.5";
    object      omega;
}
// * * * * * * * * * * * * * * * * * * * * * * * * * * * * * * * * * * * * * //

dimensions      [0 0 -1 0 0 0 0];

internalField   nonuniform List<scalar> 
400
(
128
128
128
128
128
128
128
128
128
128
128
128
128
128
128
128
128
128
128
128
128
35.9344
32.5082
33.4716
34.1693
34.7789
35.4802
36.2675
36.963
37.3009
36.9692
35.3205
31.9716
28.1749
26.6672
27.9309
33.9813
42.1617
61.0268
128
128
24.3359
16.3082
15.9286
16.1245
16.3441
16.5768
16.7978
16.9151
16.8244
16.3528
15.762
15.5938
16.7146
21.3216
29.8305
40.8776
51.4984
72.923
128
128
22.2652
12.3906
11.2121
11.1064
11.1634
11.2612
11.3544
11.4182
11.4573
11.563
12.1639
14.3482
19.124
28.3353
39.5811
46.5446
56.9851
82.4728
128
128
21.771
11.1127
9.45866
9.15516
9.13074
9.18453
9.27542
9.4076
9.65825
10.286
11.948
15.6837
23.6289
34.3737
40.9397
44.181
55.0413
83.0277
128
128
21.7234
10.633
8.68422
8.23829
8.16162
8.19725
8.30916
8.52276
8.96844
9.99927
12.4167
17.9261
27.3486
33.4603
34.4905
33.7854
41.2611
72.8526
128
128
21.8081
10.4578
8.31264
7.76255
7.64408
7.6669
7.79751
8.07577
8.66551
9.97433
12.954
19.1268
27.1167
29.7878
27.7788
26.1991
30.8891
59.287
128
128
21.9919
10.4251
8.13298
7.50285
7.34773
7.3573
7.49507
7.80576
8.45654
9.84243
12.7644
18.6129
25.4375
26.5734
24.772
23.6077
26.7116
50.7606
128
128
22.2031
10.4495
8.05115
7.35807
7.16877
7.16384
7.29609
7.60777
8.24866
9.56256
12.2198
17.1998
22.9951
24.3008
23.5337
22.6349
25.1492
45.4737
128
128
22.4141
10.5069
8.02099
7.27675
7.0559
7.03483
7.15181
7.4408
8.02121
9.14851
11.2753
15.0114
20.1447
22.3726
22.6808
22.3136
24.844
43.2408
128
128
22.6013
10.5727
8.01654
7.23066
6.98192
6.9439
7.04036
7.29343
7.78995
8.70682
10.3309
13.0254
16.9928
19.9673
21.2627
21.9118
24.9188
42.5228
128
128
22.7386
10.6264
8.01953
7.20332
6.93196
6.87807
6.95317
7.16661
7.57671
8.30047
9.5129
11.4193
14.1724
17.2244
19.0316
20.4286
24.6951
42.5737
128
128
22.7821
10.6488
8.01966
7.18528
6.89856
6.83198
6.8881
7.06423
7.39639
7.95922
8.85848
10.2115
12.0629
14.5167
16.59
18.7062
24.3169
44.0616
128
128
22.7351
10.6383
8.01338
7.17796
6.88888
6.81713
6.85991
7.00189
7.26172
7.69152
8.35422
9.31875
10.5984
12.3394
14.2839
16.8036
23.7329
44.3098
128
128
22.587
10.5934
8.00516
7.19023
6.91127
6.84504
6.88865
7.0194
7.24212
7.5643
8.0256
8.67367
9.54564
10.7185
12.2724
14.8262
22.8082
44.1497
128
128
22.214
10.4931
8.03517
7.27968
7.04567
7.01448
7.08507
7.22491
7.43264
7.71884
8.10535
8.5956
9.15528
9.84968
10.929
13.7471
22.3805
44.4511
128
128
21.7075
10.5433
8.31171
7.74079
7.66339
7.77397
7.97685
8.2175
8.50096
8.81254
9.18529
9.61115
10.122
10.7131
11.6781
14.3072
22.965
46.484
128
128
21.422
11.5188
10.0646
10.1068
10.5962
11.2055
11.905
12.5317
13.2137
13.7865
14.4502
15.0313
15.7968
16.5127
17.7249
20.5793
29.6547
55.0159
128
128
26.217
20.8882
22.3113
24.3846
26.7367
28.6735
30.8392
32.3309
34.1543
35.2223
36.7969
37.609
39.1829
39.9852
41.4756
44.7319
55.7415
82.399
128
128
128
128
128
128
128
128
128
128
128
128
128
128
128
128
128
128
128
128
128
)
;

boundaryField
{
    movingWall
    {
        Cmu             0.09;
        kappa           0.41;
        E               9.8;
        beta1           0.075;
        blended         false;
        type            omegaWallFunction;
        value           nonuniform List<scalar> 
20
(
128
128
128
128
128
128
128
128
128
128
128
128
128
128
128
128
128
128
128
128
)
;
    }
    fixedWalls
    {
        Cmu             0.09;
        kappa           0.41;
        E               9.8;
        beta1           0.075;
        blended         false;
        type            omegaWallFunction;
        value           nonuniform List<scalar> 
60
(
128
128
128
128
128
128
128
128
128
128
128
128
128
128
128
128
128
128
128
128
128
128
128
128
128
128
128
128
128
128
128
128
128
128
128
128
128
128
128
128
128
128
128
128
128
128
128
128
128
128
128
128
128
128
128
128
128
128
128
128
)
;
    }
    frontAndBack
    {
        type            empty;
    }
}


// ************************************************************************* //
