/*--------------------------------*- C++ -*----------------------------------*\
| =========                 |                                                 |
| \\      /  F ield         | OpenFOAM: The Open Source CFD Toolbox           |
|  \\    /   O peration     | Version:  5.0                                   |
|   \\  /    A nd           | Web:      www.OpenFOAM.org                      |
|    \\/     M anipulation  |                                                 |
\*---------------------------------------------------------------------------*/
FoamFile
{
    version     2.0;
    format      ascii;
    class       volScalarField;
    location    "1.5";
    object      p;
}
// * * * * * * * * * * * * * * * * * * * * * * * * * * * * * * * * * * * * * //

dimensions      [0 2 -2 0 0 0 0];

internalField   nonuniform List<scalar> 
400
(
-7.23013e-09
1.81648e-06
1.03391e-05
2.80567e-05
5.4996e-05
9.19307e-05
0.000140662
0.000203913
0.000285623
0.000391882
0.000532686
0.000722983
0.000980018
0.00134228
0.0019006
0.00267137
0.00355188
0.00436265
0.00486379
0.00503613
-3.33213e-06
-2.35211e-06
4.62276e-06
2.04442e-05
4.47858e-05
7.82509e-05
0.00012226
0.000178741
0.000250467
0.000341978
0.000460748
0.00061847
0.000835371
0.00116233
0.00168547
0.00244449
0.0033783
0.00423685
0.00479842
0.00505655
-1.70495e-05
-1.94552e-05
-1.76534e-05
-6.56998e-06
1.3175e-05
4.06376e-05
7.60851e-05
0.00011998
0.000172891
0.000236052
0.000312463
0.000407148
0.000533778
0.000746136
0.00116415
0.00188357
0.00283817
0.00380226
0.00458164
0.00507245
-4.59357e-05
-5.29817e-05
-5.9525e-05
-5.62539e-05
-4.36331e-05
-2.5571e-05
-3.89741e-06
1.96751e-05
4.26074e-05
6.1404e-05
7.35544e-05
7.57818e-05
5.97538e-05
4.87536e-05
0.000176821
0.000640788
0.00154707
0.00272558
0.003975
0.00486146
-9.40525e-05
-0.000105699
-0.000122934
-0.000131217
-0.000129615
-0.000125464
-0.000123758
-0.000129166
-0.000148559
-0.000191044
-0.000264836
-0.000385038
-0.000612851
-0.00102445
-0.00148984
-0.00153203
-0.000808931
0.000529697
0.00227144
0.00343208
-0.000162189
-0.000177804
-0.00020588
-0.000228213
-0.000241704
-0.00025609
-0.000279845
-0.000321188
-0.000391807
-0.00050713
-0.000684167
-0.000957712
-0.00145419
-0.00236196
-0.00357235
-0.00432415
-0.00378926
-0.00230775
-0.000496951
0.000859981
-0.000248022
-0.000266427
-0.000303146
-0.000339021
-0.0003692
-0.000404333
-0.000455648
-0.000534707
-0.000657517
-0.000846084
-0.00112924
-0.00156271
-0.00229009
-0.00359221
-0.00534956
-0.00653873
-0.00615414
-0.00469461
-0.00328263
-0.00175102
-0.000346596
-0.000366652
-0.000408888
-0.000455564
-0.00050092
-0.000555372
-0.000631593
-0.00074328
-0.000909005
-0.00115491
-0.00151738
-0.00206504
-0.00294248
-0.00436772
-0.00627449
-0.0076096
-0.00734606
-0.00602247
-0.00489553
-0.00361929
-0.000452113
-0.00047276
-0.000517469
-0.000571091
-0.000627771
-0.000696984
-0.000791416
-0.000925149
-0.00111682
-0.00139305
-0.0017912
-0.00236731
-0.00324093
-0.00455153
-0.00632931
-0.00763962
-0.007438
-0.00623946
-0.00554358
-0.00448472
-0.000559219
-0.000579437
-0.000623902
-0.000680297
-0.000743209
-0.000820811
-0.000924608
-0.00106738
-0.0012654
-0.00154143
-0.00192743
-0.00246896
-0.00321725
-0.00428917
-0.00564885
-0.00663265
-0.00657874
-0.00565678
-0.00537838
-0.00452847
-0.000663791
-0.000682511
-0.000724339
-0.000779515
-0.000843328
-0.000922614
-0.00102696
-0.00116668
-0.00135413
-0.00160541
-0.00194069
-0.00238534
-0.00297061
-0.00370839
-0.00453683
-0.00511732
-0.00517199
-0.00464506
-0.00472124
-0.00396479
-0.000763363
-0.000779457
-0.000816448
-0.000866816
-0.000926587
-0.00100161
-0.00109936
-0.00122736
-0.0013938
-0.00160777
-0.00187916
-0.00221525
-0.00261731
-0.00305934
-0.00350075
-0.00372757
-0.00377947
-0.00352588
-0.00385009
-0.0031424
-0.000857105
-0.000869296
-0.000899293
-0.000941673
-0.000993108
-0.00105925
-0.00114563
-0.00125737
-0.00139918
-0.0015752
-0.0017873
-0.0020318
-0.00229564
-0.00254499
-0.0027619
-0.00281125
-0.00283548
-0.0026398
-0.00314946
-0.00234433
-0.0009465
-0.00095314
-0.000973711
-0.0010049
-0.00104481
-0.00109822
-0.00117052
-0.00126489
-0.00138355
-0.00152729
-0.00169382
-0.00187499
-0.00205463
-0.0022023
-0.00230418
-0.00228371
-0.00231247
-0.00202934
-0.00274023
-0.00148205
-0.00103577
-0.00103266
-0.00104032
-0.0010568
-0.00108167
-0.00112021
-0.00117774
-0.001256
-0.00135563
-0.00147548
-0.00161157
-0.00175483
-0.00188989
-0.00199285
-0.00205279
-0.00204362
-0.0020584
-0.00161914
-0.00241479
-0.000537209
-0.0011333
-0.00111316
-0.00110103
-0.00109853
-0.0011034
-0.0011251
-0.00116843
-0.0012332
-0.00131915
-0.00142386
-0.00154317
-0.00166815
-0.0017845
-0.00186891
-0.00191052
-0.00188658
-0.00188694
-0.00131968
-0.00199729
0.000582955
-0.00126185
-0.00119417
-0.00115753
-0.00112833
-0.00110839
-0.00111175
-0.00114155
-0.00119546
-0.00127314
-0.00137074
-0.00148459
-0.00160378
-0.00171555
-0.00179699
-0.00183209
-0.00177787
-0.0016799
-0.000977021
-0.0011729
0.00223303
-0.00146495
-0.00128305
-0.00121218
-0.00112437
-0.00107951
-0.00106908
-0.00109052
-0.00113751
-0.00121176
-0.00130686
-0.00142258
-0.00154483
-0.00166443
-0.00175138
-0.00178367
-0.00166327
-0.0013708
-0.000323698
0.000593312
0.00567241
-0.00184811
-0.00138436
-0.00121862
-0.00105765
-0.000986012
-0.000963505
-0.000981608
-0.00102319
-0.00109768
-0.00118874
-0.00130997
-0.00143293
-0.0015676
-0.00165874
-0.00170221
-0.00155338
-0.001031
0.000985963
0.00486938
0.0147919
-0.00261443
-0.000440109
-0.000270482
-0.000321591
-0.000359125
-0.000398953
-0.000459608
-0.000547986
-0.000658364
-0.000790362
-0.000937751
-0.00110133
-0.00125753
-0.00138547
-0.00139789
-0.00117551
8.40693e-05
0.00424554
0.0143514
0.0317967
)
;

boundaryField
{
    movingWall
    {
        type            zeroGradient;
    }
    fixedWalls
    {
        type            zeroGradient;
    }
    frontAndBack
    {
        type            empty;
    }
}


// ************************************************************************* //
