/*--------------------------------*- C++ -*----------------------------------*\
| =========                 |                                                 |
| \\      /  F ield         | OpenFOAM: The Open Source CFD Toolbox           |
|  \\    /   O peration     | Version:  5.0                                   |
|   \\  /    A nd           | Web:      www.OpenFOAM.org                      |
|    \\/     M anipulation  |                                                 |
\*---------------------------------------------------------------------------*/
FoamFile
{
    version     2.0;
    format      ascii;
    class       surfaceScalarField;
    location    "1.5";
    object      phi;
}
// * * * * * * * * * * * * * * * * * * * * * * * * * * * * * * * * * * * * * //

dimensions      [0 3 -1 0 0 0 0];

internalField   nonuniform List<scalar> 
760
(
-3.80986e-08
3.80993e-08
-1.09561e-07
7.14628e-08
-2.12738e-07
1.03177e-07
-3.34738e-07
1.22e-07
-4.68902e-07
1.34164e-07
-6.15329e-07
1.46427e-07
-7.77025e-07
1.61696e-07
-9.57911e-07
1.80886e-07
-1.16171e-06
2.03794e-07
-1.39033e-06
2.28622e-07
-1.64117e-06
2.50842e-07
-1.90234e-06
2.61168e-07
-2.14391e-06
2.41577e-07
-2.31642e-06
1.72504e-07
-2.37358e-06
5.71591e-08
-2.20582e-06
-1.67756e-07
-1.75897e-06
-4.4685e-07
-1.09434e-06
-6.64634e-07
-4.32811e-07
-6.61526e-07
-4.32811e-07
-6.6588e-08
1.04687e-07
-1.81834e-07
1.86709e-07
-3.37169e-07
2.58512e-07
-5.17421e-07
3.02252e-07
-7.12621e-07
3.29364e-07
-9.20657e-07
3.54462e-07
-1.1439e-06
3.84938e-07
-1.38596e-06
4.22945e-07
-1.64944e-06
4.67281e-07
-1.93349e-06
5.12664e-07
-2.23067e-06
5.48022e-07
-2.52506e-06
5.55559e-07
-2.79281e-06
5.09332e-07
-2.99475e-06
3.74438e-07
-3.04597e-06
1.08383e-07
-2.85384e-06
-3.59889e-07
-2.3062e-06
-9.94491e-07
-1.47262e-06
-1.49821e-06
-6.07728e-07
-1.52641e-06
-1.04054e-06
-9.30603e-08
1.97748e-07
-2.2847e-07
3.22118e-07
-3.87402e-07
4.17444e-07
-5.65489e-07
4.8034e-07
-7.60119e-07
5.23994e-07
-9.70527e-07
5.64871e-07
-1.19885e-06
6.13264e-07
-1.44883e-06
6.72918e-07
-1.72343e-06
7.41881e-07
-2.02223e-06
8.11465e-07
-2.34008e-06
8.6587e-07
-2.66758e-06
8.8306e-07
-2.99485e-06
8.36604e-07
-3.30237e-06
6.81959e-07
-3.52154e-06
3.27551e-07
-3.47864e-06
-4.02784e-07
-2.96717e-06
-1.50596e-06
-2.07688e-06
-2.3885e-06
-1.00619e-06
-2.59711e-06
-2.04673e-06
-1.12448e-07
3.10196e-07
-2.58374e-07
4.68043e-07
-4.10781e-07
5.69851e-07
-5.73991e-07
6.43549e-07
-7.52388e-07
7.02391e-07
-9.48094e-07
7.60578e-07
-1.16374e-06
8.2891e-07
-1.40298e-06
9.12159e-07
-1.66946e-06
1.00836e-06
-1.96607e-06
1.10808e-06
-2.29473e-06
1.19453e-06
-2.66083e-06
1.24916e-06
-3.08665e-06
1.26242e-06
-3.59497e-06
1.19028e-06
-4.08013e-06
8.12715e-07
-4.21784e-06
-2.6508e-07
-3.77903e-06
-1.94477e-06
-2.89657e-06
-3.27096e-06
-1.58998e-06
-3.9037e-06
-3.63671e-06
-1.19344e-07
4.2954e-07
-2.66494e-07
6.15193e-07
-4.10743e-07
7.14101e-07
-5.58719e-07
7.91525e-07
-7.1776e-07
8.61432e-07
-8.92301e-07
9.35118e-07
-1.08574e-06
1.02235e-06
-1.30183e-06
1.12824e-06
-1.54522e-06
1.25174e-06
-1.82279e-06
1.38565e-06
-2.14656e-06
1.5183e-06
-2.5422e-06
1.64479e-06
-3.0575e-06
1.77773e-06
-3.71166e-06
1.84445e-06
-4.29128e-06
1.39233e-06
-4.35377e-06
-2.02592e-07
-3.92009e-06
-2.37844e-06
-3.1839e-06
-4.00715e-06
-1.85457e-06
-5.23302e-06
-5.49128e-06
-1.15205e-07
5.44745e-07
-2.55725e-07
7.55713e-07
-3.89916e-07
8.48292e-07
-5.22883e-07
9.24492e-07
-6.61737e-07
1.00029e-06
-8.11594e-07
1.08498e-06
-9.7609e-07
1.18685e-06
-1.15874e-06
1.31089e-06
-1.36448e-06
1.45748e-06
-1.60211e-06
1.62329e-06
-1.88988e-06
1.80607e-06
-2.26391e-06
2.01882e-06
-2.75935e-06
2.27317e-06
-3.31891e-06
2.40401e-06
-3.68194e-06
1.75536e-06
-3.59423e-06
-2.90303e-07
-3.14664e-06
-2.82603e-06
-2.54876e-06
-4.60503e-06
-1.60173e-06
-6.18006e-06
-7.09301e-06
-1.04174e-07
6.48919e-07
-2.32357e-07
8.83896e-07
-3.53789e-07
9.69724e-07
-4.70802e-07
1.04151e-06
-5.8858e-07
1.11806e-06
-7.1133e-07
1.20773e-06
-8.41853e-07
1.31737e-06
-9.82364e-07
1.4514e-06
-1.13599e-06
1.61111e-06
-1.30882e-06
1.79612e-06
-1.5143e-06
2.01155e-06
-1.78046e-06
2.28498e-06
-2.1252e-06
2.6179e-06
-2.42948e-06
2.70829e-06
-2.53124e-06
1.85712e-06
-2.39388e-06
-4.27664e-07
-2.13423e-06
-3.08568e-06
-1.79113e-06
-4.94813e-06
-1.17084e-06
-6.80035e-06
-8.26385e-06
-8.97182e-08
7.38637e-07
-2.02091e-07
9.96269e-07
-3.08581e-07
1.07621e-06
-4.08434e-07
1.14136e-06
-5.04364e-07
1.21399e-06
-5.98727e-07
1.30209e-06
-6.92602e-07
1.41125e-06
-7.85987e-07
1.54479e-06
-8.78556e-07
1.70368e-06
-9.70648e-07
1.88822e-06
-1.06491e-06
2.1058e-06
-1.1635e-06
2.38357e-06
-1.24482e-06
2.69923e-06
-1.27403e-06
2.7375e-06
-1.26352e-06
1.8466e-06
-1.22628e-06
-4.64897e-07
-1.13468e-06
-3.17728e-06
-1.003e-06
-5.07981e-06
-8.29332e-07
-6.97402e-06
-9.09318e-06
-7.41581e-08
8.12795e-07
-1.69783e-07
1.09189e-06
-2.60245e-07
1.16668e-06
-3.42337e-07
1.22345e-06
-4.16417e-07
1.28807e-06
-4.82741e-07
1.36841e-06
-5.40385e-07
1.46889e-06
-5.86948e-07
1.59135e-06
-6.18453e-07
1.73518e-06
-6.28736e-07
1.8985e-06
-6.06785e-07
2.08385e-06
-5.30987e-07
2.30777e-06
-3.88012e-07
2.55625e-06
-2.16444e-07
2.56594e-06
-1.12979e-07
1.74314e-06
-1.64442e-07
-4.13434e-07
-2.24689e-07
-3.11703e-06
-3.38895e-07
-4.96561e-06
-4.70304e-07
-6.84261e-06
-9.56349e-06
-5.97006e-08
8.72496e-07
-1.39548e-07
1.17174e-06
-2.1421e-07
1.24134e-06
-2.78959e-07
1.2882e-06
-3.32297e-07
1.34141e-06
-3.7271e-07
1.40883e-06
-3.97655e-07
1.49383e-06
-4.03021e-07
1.59672e-06
-3.82533e-07
1.71469e-06
-3.26492e-07
1.84246e-06
-2.17712e-07
1.97507e-06
-1.93372e-08
2.1094e-06
2.94311e-07
2.2426e-06
6.65872e-07
2.19437e-06
9.09029e-07
1.49998e-06
7.24341e-07
-2.28746e-07
4.07693e-07
-2.80039e-06
1.59517e-08
-4.57386e-06
-2.42544e-07
-6.58411e-06
-9.80603e-06
-4.83897e-08
9.20885e-07
-1.14823e-07
1.23817e-06
-1.75204e-07
1.30172e-06
-2.24052e-07
1.33705e-06
-2.58703e-07
1.37606e-06
-2.76582e-07
1.42671e-06
-2.74331e-07
1.49158e-06
-2.47325e-07
1.56971e-06
-1.89026e-07
1.6564e-06
-8.97711e-08
1.7432e-06
6.66088e-08
1.81869e-06
3.04243e-07
1.87176e-06
6.69631e-07
1.87722e-06
1.1166e-06
1.74741e-06
1.43922e-06
1.17736e-06
1.32176e-06
-1.11288e-07
8.2061e-07
-2.29924e-06
3.14162e-07
-4.06742e-06
-1.1578e-07
-6.15417e-06
-9.92181e-06
-4.21443e-08
9.6303e-07
-9.87597e-08
1.29479e-06
-1.47277e-07
1.35024e-06
-1.82297e-07
1.37207e-06
-2.00683e-07
1.39445e-06
-1.99734e-07
1.42576e-06
-1.7617e-07
1.46802e-06
-1.26059e-07
1.5196e-06
-4.43722e-08
1.57471e-06
7.55043e-08
1.62333e-06
2.42245e-07
1.65195e-06
4.71489e-07
1.64252e-06
7.81197e-07
1.56751e-06
1.15519e-06
1.37341e-06
1.44084e-06
8.91704e-07
1.42309e-06
-9.35373e-08
9.03394e-07
-1.77954e-06
3.73653e-07
-3.53768e-06
-1.01268e-08
-5.77039e-06
-9.93194e-06
-4.18814e-08
1.00491e-06
-9.37509e-08
1.34666e-06
-1.33616e-07
1.3901e-06
-1.56949e-07
1.3954e-06
-1.60998e-07
1.3985e-06
-1.44192e-07
1.40895e-06
-1.03985e-07
1.42781e-06
-3.7962e-08
1.45358e-06
5.64529e-08
1.4803e-06
1.81883e-07
1.4979e-06
3.41508e-07
1.49233e-06
5.38118e-07
1.44591e-06
7.7068e-07
1.33495e-06
1.02204e-06
1.12206e-06
1.2024e-06
7.11342e-07
1.17765e-06
-6.87855e-08
7.3447e-07
-1.33636e-06
2.69736e-07
-3.07294e-06
-4.90569e-08
-5.4516e-06
-9.98099e-06
-5.2865e-08
1.05778e-06
-1.04123e-07
1.39792e-06
-1.36972e-07
1.42295e-06
-1.48966e-07
1.40739e-06
-1.39581e-07
1.38911e-06
-1.07826e-07
1.3772e-06
-5.30615e-08
1.37305e-06
2.52347e-08
1.37528e-06
1.27069e-07
1.37846e-06
2.51779e-07
1.37319e-06
3.97256e-07
1.34685e-06
5.59189e-07
1.28398e-06
7.28221e-07
1.16591e-06
8.8315e-07
9.67129e-07
9.70521e-07
6.23971e-07
8.99107e-07
2.62823e-09
5.68121e-07
-1.00537e-06
1.7342e-07
-2.67824e-06
-3.74788e-08
-5.2407e-06
-1.00185e-05
-6.97496e-08
1.12753e-06
-1.29333e-07
1.4575e-06
-1.57094e-07
1.45071e-06
-1.56332e-07
1.40663e-06
-1.31073e-07
1.36385e-06
-8.22593e-08
1.32838e-06
-1.16454e-08
1.30243e-06
7.94474e-08
1.28419e-06
1.88938e-07
1.26897e-06
3.13676e-07
1.24845e-06
4.48279e-07
1.21225e-06
5.84764e-07
1.14749e-06
7.11226e-07
1.03945e-06
8.10081e-07
8.68274e-07
8.42832e-07
5.91221e-07
7.42169e-07
1.03291e-07
5.02302e-07
-7.65507e-07
1.60878e-07
-2.33682e-06
3.12086e-08
-5.11103e-06
-9.98726e-06
-1.19285e-07
1.24681e-06
-1.79529e-07
1.51774e-06
-1.91189e-07
1.46237e-06
-1.69236e-07
1.38468e-06
-1.20098e-07
1.31471e-06
-4.77147e-08
1.256e-06
4.46084e-08
1.21011e-06
1.54334e-07
1.17446e-06
2.77753e-07
1.14555e-06
4.10605e-07
1.1156e-06
5.46006e-07
1.07685e-06
6.7577e-07
1.01773e-06
7.87771e-07
9.27451e-07
8.64596e-07
7.91449e-07
8.75613e-07
5.80203e-07
7.90877e-07
1.88028e-07
6.00158e-07
-5.74789e-07
3.01127e-07
-2.03779e-06
1.73348e-07
-4.98325e-06
-9.81392e-06
-1.70339e-07
1.41715e-06
-2.31075e-07
1.57848e-06
-2.1726e-07
1.44856e-06
-1.55312e-07
1.32273e-06
-6.64738e-08
1.22588e-06
4.39039e-08
1.14562e-06
1.70809e-07
1.0832e-06
3.12364e-07
1.03291e-06
4.64059e-07
9.93856e-07
6.22432e-07
9.57223e-07
7.79318e-07
9.1996e-07
9.26141e-07
8.70905e-07
1.04785e-06
8.05745e-07
1.13075e-06
7.08548e-07
1.15112e-06
5.59835e-07
1.10099e-06
2.38154e-07
9.39078e-07
-4.12877e-07
6.79941e-07
-1.77865e-06
4.76207e-07
-4.77952e-06
-9.33771e-06
-3.48648e-07
1.7658e-06
-3.00647e-07
1.53048e-06
-1.78674e-07
1.32658e-06
-3.20952e-08
1.17615e-06
1.32963e-07
1.06082e-06
3.14533e-07
9.64053e-07
5.06303e-07
8.91434e-07
7.09029e-07
8.3018e-07
9.16153e-07
7.86732e-07
1.12814e-06
7.45232e-07
1.33425e-06
7.13858e-07
1.53139e-06
6.73764e-07
1.70147e-06
6.35663e-07
1.83737e-06
5.72649e-07
1.90021e-06
4.96995e-07
1.88732e-06
2.51041e-07
1.72276e-06
-2.48315e-07
1.44352e-06
-1.49941e-06
1.00411e-06
-4.34011e-06
-8.3336e-06
-4.44271e-07
2.21007e-06
-1.49453e-07
1.23566e-06
2.10863e-07
9.66267e-07
5.63466e-07
8.2355e-07
8.9783e-07
7.26452e-07
1.2269e-06
6.34979e-07
1.54358e-06
5.74763e-07
1.86255e-06
5.11202e-07
2.1666e-06
4.82685e-07
2.47637e-06
4.35466e-07
2.76309e-06
4.27131e-07
3.05254e-06
3.84321e-07
3.30075e-06
3.87452e-07
3.53865e-06
3.34741e-07
3.70435e-06
3.313e-07
3.78337e-06
1.72024e-07
3.66632e-06
-1.31267e-07
3.27207e-06
-1.10517e-06
2.16152e-06
-3.22955e-06
-6.17208e-06
2.21007e-06
3.44573e-06
4.412e-06
5.23555e-06
5.962e-06
6.59698e-06
7.17174e-06
7.68294e-06
8.16563e-06
8.60109e-06
9.02823e-06
9.41255e-06
9.8e-06
1.01347e-05
1.0466e-05
1.06381e-05
1.05068e-05
9.40163e-06
6.17208e-06
)
;

boundaryField
{
    movingWall
    {
        type            calculated;
        value           uniform 0;
    }
    fixedWalls
    {
        type            calculated;
        value           uniform 0;
    }
    frontAndBack
    {
        type            empty;
        value           nonuniform 0();
    }
}


// ************************************************************************* //
