/*--------------------------------*- C++ -*----------------------------------*\
| =========                 |                                                 |
| \\      /  F ield         | OpenFOAM: The Open Source CFD Toolbox           |
|  \\    /   O peration     | Version:  5.0                                   |
|   \\  /    A nd           | Web:      www.OpenFOAM.org                      |
|    \\/     M anipulation  |                                                 |
\*---------------------------------------------------------------------------*/
FoamFile
{
    version     2.0;
    format      ascii;
    class       volVectorField;
    location    "1.5";
    object      U;
}
// * * * * * * * * * * * * * * * * * * * * * * * * * * * * * * * * * * * * * //

dimensions      [0 1 -1 0 0 0 0];

internalField   nonuniform List<vector> 
400
(
(-0.000248687 0.000262067 0)
(-0.00132802 0.000452733 0)
(-0.00311736 0.000649108 0)
(-0.0054264 0.000773314 0)
(-0.00800873 0.000874412 0)
(-0.010814 0.000989467 0)
(-0.0138885 0.00113432 0)
(-0.0173096 0.00132019 0)
(-0.0211624 0.00155479 0)
(-0.0255147 0.00183674 0)
(-0.030364 0.00214489 0)
(-0.0355706 0.00240519 0)
(-0.0409336 0.00242537 0)
(-0.0454129 0.00201244 0)
(-0.0472435 0.00144195 0)
(-0.0466124 -0.000858628 0)
(-0.0397541 -0.00320703 0)
(-0.0283922 -0.0050953 0)
(-0.014875 -0.00516064 0)
(-0.00348773 -0.0036192 0)
(-0.000423995 0.00132272 0)
(-0.0023096 0.00249566 0)
(-0.00504474 0.00359346 0)
(-0.00847208 0.00423209 0)
(-0.0122655 0.00461037 0)
(-0.0162999 0.00497297 0)
(-0.0206043 0.00542567 0)
(-0.0252536 0.00599431 0)
(-0.0303224 0.00666354 0)
(-0.0358414 0.00736659 0)
(-0.0417416 0.00794547 0)
(-0.0478136 0.00810649 0)
(-0.0537145 0.00739253 0)
(-0.0587113 0.00521375 0)
(-0.0612712 0.00112467 0)
(-0.0596983 -0.00535968 0)
(-0.0519526 -0.0136967 0)
(-0.0377216 -0.0203157 0)
(-0.0208969 -0.0204868 0)
(-0.00423575 -0.0134763 0)
(-0.00065159 0.00294805 0)
(-0.00316258 0.00506103 0)
(-0.00607748 0.00683008 0)
(-0.00942796 0.00794596 0)
(-0.0131866 0.00866141 0)
(-0.0172401 0.00931292 0)
(-0.0216146 0.0100929 0)
(-0.0263837 0.011063 0)
(-0.0316309 0.01219 0)
(-0.0373955 0.0133265 0)
(-0.0436216 0.0141827 0)
(-0.0501953 0.0143308 0)
(-0.0569981 0.0132021 0)
(-0.0637253 0.0100851 0)
(-0.0692517 0.0036795 0)
(-0.0709249 -0.00767942 0)
(-0.0653402 -0.0237294 0)
(-0.0506165 -0.0370354 0)
(-0.0323225 -0.0387651 0)
(-0.00710163 -0.0270205 0)
(-0.000820732 0.00504684 0)
(-0.0037793 0.00789418 0)
(-0.00668862 0.00990967 0)
(-0.0097485 0.0113149 0)
(-0.0131729 0.0123634 0)
(-0.0169134 0.0133613 0)
(-0.0210106 0.0145284 0)
(-0.0255396 0.0159541 0)
(-0.0305817 0.0175951 0)
(-0.0362109 0.0192517 0)
(-0.0424685 0.0205761 0)
(-0.0493871 0.0211257 0)
(-0.0573716 0.0205274 0)
(-0.0672109 0.0179873 0)
(-0.0780657 0.0105562 0)
(-0.0852795 -0.00693393 0)
(-0.0812855 -0.0336496 0)
(-0.0668926 -0.0543956 0)
(-0.0468703 -0.0605136 0)
(-0.0133741 -0.0498256 0)
(-0.000866978 0.00738609 0)
(-0.00399494 0.0108345 0)
(-0.0068304 0.0128573 0)
(-0.00961795 0.0143905 0)
(-0.0126744 0.0156991 0)
(-0.016004 0.0170317 0)
(-0.0196654 0.0185948 0)
(-0.0237351 0.0204886 0)
(-0.0282996 0.0226764 0)
(-0.0334795 0.0249783 0)
(-0.0393983 0.0270833 0)
(-0.0462711 0.0287217 0)
(-0.0551019 0.0299118 0)
(-0.06808 0.0295921 0)
(-0.0836984 0.021329 0)
(-0.0907264 -0.00439671 0)
(-0.0825118 -0.0442855 0)
(-0.0711609 -0.0749721 0)
(-0.0497325 -0.0912287 0)
(-0.0202645 -0.0911961 0)
(-0.000805704 0.00974163 0)
(-0.0038604 0.0137227 0)
(-0.00655066 0.0156534 0)
(-0.00908043 0.0172058 0)
(-0.0117721 0.0186824 0)
(-0.014649 0.0202854 0)
(-0.017774 0.0221943 0)
(-0.0212167 0.0245099 0)
(-0.0250629 0.027222 0)
(-0.0294433 0.0302179 0)
(-0.0345147 0.0333383 0)
(-0.0405262 0.036634 0)
(-0.048791 0.0403225 0)
(-0.0618031 0.042057 0)
(-0.0757734 0.0308565 0)
(-0.0780008 -0.00558864 0)
(-0.0656543 -0.0570368 0)
(-0.0557381 -0.0922614 0)
(-0.0398568 -0.121733 0)
(-0.0199748 -0.133355 0)
(-0.000683453 0.0119419 0)
(-0.00350359 0.0164233 0)
(-0.00597069 0.0182237 0)
(-0.00822575 0.0197188 0)
(-0.0105446 0.0212623 0)
(-0.0129403 0.0230305 0)
(-0.0154584 0.0251742 0)
(-0.0181444 0.0277878 0)
(-0.0210524 0.0308894 0)
(-0.0242614 0.0344414 0)
(-0.0278516 0.0384651 0)
(-0.0319419 0.0433043 0)
(-0.0374693 0.049083 0)
(-0.0468301 0.0510792 0)
(-0.0558433 0.0351621 0)
(-0.0527553 -0.00750424 0)
(-0.0420188 -0.0618456 0)
(-0.0370827 -0.0994187 0)
(-0.0325328 -0.135228 0)
(-0.00855825 -0.15873 0)
(-0.000543437 0.0138886 0)
(-0.00302863 0.0188369 0)
(-0.00521909 0.0205131 0)
(-0.00717337 0.0218973 0)
(-0.00910693 0.0234094 0)
(-0.0110054 0.0252145 0)
(-0.0128812 0.0274379 0)
(-0.0147411 0.0301584 0)
(-0.0165827 0.0334034 0)
(-0.0183963 0.0371798 0)
(-0.0201156 0.0416281 0)
(-0.0216334 0.0473553 0)
(-0.0235271 0.0539873 0)
(-0.0255748 0.0548298 0)
(-0.0298334 0.0368257 0)
(-0.0261753 -0.00916097 0)
(-0.0211173 -0.0635948 0)
(-0.0190516 -0.102456 0)
(-0.022168 -0.140832 0)
(-0.0063347 -0.177774 0)
(-0.000407132 0.0155347 0)
(-0.00252279 0.0209205 0)
(-0.00441028 0.0224883 0)
(-0.00604831 0.0237219 0)
(-0.00759434 0.0251136 0)
(-0.00900156 0.0268251 0)
(-0.0102446 0.0289573 0)
(-0.0112887 0.0315641 0)
(-0.0120711 0.0346545 0)
(-0.0124932 0.0382231 0)
(-0.0123698 0.0423914 0)
(-0.0112606 0.0476364 0)
(-0.00896445 0.0536326 0)
(-0.00600115 0.0542853 0)
(-0.00483004 0.0367705 0)
(-0.00149964 -0.00903579 0)
(-0.00380388 -0.0628876 0)
(-0.00248127 -0.10034 0)
(-0.0134084 -0.13797 0)
(-0.00185056 -0.187919 0)
(-0.000287562 0.0168752 0)
(-0.00205726 0.0226772 0)
(-0.00364374 0.0241407 0)
(-0.00497005 0.0251907 0)
(-0.00614438 0.026386 0)
(-0.00709251 0.0278871 0)
(-0.00775805 0.0297728 0)
(-0.00807544 0.0320653 0)
(-0.00794299 0.034734 0)
(-0.00720923 0.0377147 0)
(-0.00562578 0.0409988 0)
(-0.00273446 0.0447382 0)
(0.00229777 0.0489698 0)
(0.00946154 0.0492004 0)
(0.0148335 0.0348032 0)
(0.0183394 -0.00596384 0)
(0.011366 -0.0583497 0)
(0.00822866 -0.0941169 0)
(-0.00818263 -0.13288 0)
(0.00102359 -0.192921 0)
(-0.000202155 0.017956 0)
(-0.00168788 0.0241394 0)
(-0.00300437 0.0254877 0)
(-0.00404437 0.0263224 0)
(-0.00488026 0.0272593 0)
(-0.00542133 0.0284582 0)
(-0.00559443 0.029979 0)
(-0.00532199 0.0318144 0)
(-0.00449544 0.0338897 0)
(-0.00296422 0.0360688 0)
(-0.000514039 0.0381927 0)
(0.00327374 0.0401326 0)
(0.00903952 0.0416584 0)
(0.017489 0.0405123 0)
(0.0250914 0.0284563 0)
(0.0296556 -0.001835 0)
(0.021965 -0.0489323 0)
(0.0149283 -0.0849324 0)
(-0.00514519 -0.126081 0)
(0.00241813 -0.195733 0)
(-0.000171091 0.0188556 0)
(-0.00146682 0.0253636 0)
(-0.00256689 0.0265692 0)
(-0.00335979 0.0271537 0)
(-0.00389915 0.0277811 0)
(-0.00409101 0.0286138 0)
(-0.00386276 0.029698 0)
(-0.00314483 0.0310054 0)
(-0.00185179 0.0324285 0)
(0.000124354 0.0337795 0)
(0.00293222 0.0348045 0)
(0.00680386 0.0352023 0)
(0.0119991 0.03445 0)
(0.0189338 0.0313088 0)
(0.0255419 0.0209533 0)
(0.031715 -0.00196273 0)
(0.0230443 -0.0390779 0)
(0.0167632 -0.0742578 0)
(-0.0050932 -0.116448 0)
(0.00553594 -0.196226 0)
(-0.000195005 0.0197159 0)
(-0.0014274 0.0264469 0)
(-0.0023926 0.0274455 0)
(-0.00298319 0.0277325 0)
(-0.00326193 0.0280048 0)
(-0.00314997 0.0284272 0)
(-0.00259266 0.0290428 0)
(-0.00154294 0.0298145 0)
(4.61551e-05 0.0306209 0)
(0.00222507 0.0312557 0)
(0.00504728 0.0314342 0)
(0.00856992 0.030786 0)
(0.0127899 0.0287738 0)
(0.017866 0.0244674 0)
(0.0218269 0.0154496 0)
(0.0274462 -0.0020343 0)
(0.0177741 -0.0308731 0)
(0.0148974 -0.0655033 0)
(-0.00726371 -0.111529 0)
(0.00669009 -0.198553 0)
(-0.000377029 0.020594 0)
(-0.00167204 0.0274523 0)
(-0.00254892 0.0281612 0)
(-0.00295259 0.0280826 0)
(-0.0029784 0.0279361 0)
(-0.00257859 0.027939 0)
(-0.00171879 0.0280866 0)
(-0.00039167 0.0283572 0)
(0.00140719 0.0286354 0)
(0.00367087 0.028722 0)
(0.00637055 0.0283432 0)
(0.00944628 0.0271562 0)
(0.0127557 0.02472 0)
(0.0162637 0.0203891 0)
(0.0183609 0.0126794 0)
(0.0216479 -0.00100051 0)
(0.0123623 -0.0235879 0)
(0.0137886 -0.0575431 0)
(-0.00993791 -0.107109 0)
(0.010003 -0.200254 0)
(-0.000512277 0.0219752 0)
(-0.00216935 0.0285691 0)
(-0.00304564 0.0287766 0)
(-0.00324999 0.0282231 0)
(-0.00297578 0.0276265 0)
(-0.00223957 0.0271482 0)
(-0.00104237 0.0268412 0)
(0.000580835 0.0266672 0)
(0.00259453 0.0265235 0)
(0.00494863 0.0262319 0)
(0.00755975 0.0255579 0)
(0.010297 0.0242126 0)
(0.0129563 0.0218597 0)
(0.0154023 0.0180397 0)
(0.0166788 0.0117115 0)
(0.0178291 0.00094292 0)
(0.00973206 -0.0179777 0)
(0.0140407 -0.0504738 0)
(-0.0110286 -0.104588 0)
(0.0144849 -0.20168 0)
(-0.00132279 0.0235849 0)
(-0.00323653 0.0296922 0)
(-0.00394513 0.029252 0)
(-0.00372748 0.0280224 0)
(-0.00299314 0.0269147 0)
(-0.00178418 0.0259805 0)
(-0.000125302 0.025252 0)
(0.00190919 0.0246969 0)
(0.00425509 0.024233 0)
(0.0068381 0.0237016 0)
(0.00954539 0.0229187 0)
(0.012225 0.0216394 0)
(0.0146764 0.0195938 0)
(0.0167502 0.0164475 0)
(0.0176396 0.0115557 0)
(0.0179804 0.00290193 0)
(0.0113313 -0.0135354 0)
(0.0167432 -0.0442705 0)
(-0.0096775 -0.102826 0)
(0.0210332 -0.203525 0)
(-0.00174097 0.0270531 0)
(-0.00455613 0.0310999 0)
(-0.00487087 0.0292507 0)
(-0.00381547 0.027245 0)
(-0.00232655 0.025589 0)
(-0.000317702 0.0242028 0)
(0.00206427 0.02312 0)
(0.00476806 0.0222576 0)
(0.0077097 0.0215635 0)
(0.0108376 0.0208801 0)
(0.0140074 0.0200898 0)
(0.0170981 0.0189748 0)
(0.0198214 0.0173875 0)
(0.0219913 0.0150367 0)
(0.022962 0.011411 0)
(0.0233759 0.00433174 0)
(0.0183017 -0.00993208 0)
(0.023567 -0.0390307 0)
(-0.00365275 -0.101492 0)
(0.0306654 -0.202585 0)
(-0.00475796 0.0309514 0)
(-0.00795414 0.0320573 0)
(-0.00467104 0.0283903 0)
(-0.00221413 0.0255082 0)
(0.00089046 0.0232819 0)
(0.00441138 0.0214444 0)
(0.00813516 0.0200298 0)
(0.0121306 0.0188695 0)
(0.0161972 0.0179967 0)
(0.0204529 0.0171849 0)
(0.0245964 0.0164649 0)
(0.0287209 0.0155592 0)
(0.0323566 0.014504 0)
(0.0355675 0.0129094 0)
(0.0373484 0.0106215 0)
(0.0385338 0.0052406 0)
(0.0343089 -0.0062002 0)
(0.0382758 -0.0341242 0)
(0.00945951 -0.0993918 0)
(0.0439188 -0.195468 0)
(-0.00768 0.0414263 0)
(-0.00785393 0.0247008 0)
(0.00108258 0.0211301 0)
(0.00775475 0.0190142 0)
(0.0145068 0.0171418 0)
(0.0213331 0.0154005 0)
(0.0276112 0.0140817 0)
(0.0342113 0.0129896 0)
(0.0401718 0.0122521 0)
(0.0466059 0.0115821 0)
(0.0522431 0.0111203 0)
(0.0583609 0.0105877 0)
(0.063335 0.0101237 0)
(0.0686565 0.00933421 0)
(0.0718886 0.00842173 0)
(0.0751686 0.00396101 0)
(0.0712136 -0.00530653 0)
(0.0730703 -0.0305546 0)
(0.0436684 -0.0871716 0)
(0.0682312 -0.15508 0)
(0.0466016 0.0416869 0)
(0.0531954 0.0306006 0)
(0.076078 0.022852 0)
(0.0975385 0.0181411 0)
(0.112105 0.0154843 0)
(0.126894 0.0131283 0)
(0.137124 0.0117531 0)
(0.149681 0.00999232 0)
(0.157702 0.00940123 0)
(0.168859 0.00793101 0)
(0.175306 0.00795573 0)
(0.1854 0.0065444 0)
(0.190673 0.00708572 0)
(0.199593 0.00553903 0)
(0.203647 0.00642613 0)
(0.210643 0.00409085 0)
(0.209745 0.00195246 0)
(0.201264 -0.00476841 0)
(0.166534 -0.0138255 0)
(0.131956 -0.0378673 0)
)
;

boundaryField
{
    movingWall
    {
        type            fixedValue;
        value           uniform (1 0 0);
    }
    fixedWalls
    {
        type            noSlip;
    }
    frontAndBack
    {
        type            empty;
    }
}


// ************************************************************************* //
