/*--------------------------------*- C++ -*----------------------------------*\
| =========                 |                                                 |
| \\      /  F ield         | OpenFOAM: The Open Source CFD Toolbox           |
|  \\    /   O peration     | Version:  5.0                                   |
|   \\  /    A nd           | Web:      www.OpenFOAM.org                      |
|    \\/     M anipulation  |                                                 |
\*---------------------------------------------------------------------------*/
FoamFile
{
    version     2.0;
    format      ascii;
    class       volScalarField;
    location    "0.5";
    object      k;
}
// * * * * * * * * * * * * * * * * * * * * * * * * * * * * * * * * * * * * * //

dimensions      [0 2 -2 0 0 0 0];

internalField   nonuniform List<scalar> 
400
(
1.71046e-05
4.57511e-05
6.60781e-05
7.35292e-05
7.6025e-05
7.712e-05
7.79163e-05
7.86987e-05
7.95214e-05
8.03734e-05
8.12381e-05
8.26456e-05
8.41661e-05
8.56869e-05
8.69774e-05
8.74159e-05
8.49675e-05
7.44944e-05
4.80403e-05
1.71315e-05
4.78885e-05
0.000485363
0.000712473
0.000792964
0.00082196
0.00083517
0.000844529
0.000853475
0.000862775
0.000872319
0.000881314
0.000888182
0.000894723
0.000900739
0.000903862
0.000898239
0.000864845
0.000758881
0.000481559
4.56295e-05
7.43713e-05
0.000761007
0.00114541
0.00129443
0.00135005
0.00137081
0.00138028
0.00138687
0.00139305
0.00139924
0.00140528
0.00141083
0.00141594
0.00141894
0.00141582
0.0013935
0.00132221
0.00113835
0.00070088
6.53162e-05
8.56137e-05
0.000869079
0.00132832
0.00151476
0.00158772
0.00161439
0.00162445
0.00162943
0.00163325
0.00163692
0.00164055
0.00164397
0.00164638
0.00164607
0.00163637
0.00160123
0.00150609
0.00128055
0.000770408
7.18046e-05
8.95644e-05
0.000908254
0.00140265
0.00160895
0.00169182
0.00172217
0.00173259
0.00173659
0.00173888
0.00174086
0.00174282
0.00174447
0.00174504
0.00174199
0.00172764
0.0016841
0.00157458
0.00132614
0.000784242
7.30301e-05
9.11552e-05
0.000922671
0.00143142
0.00164679
0.00173434
0.00176641
0.00177687
0.00178023
0.00178162
0.00178264
0.0017836
0.00178419
0.00178367
0.0017789
0.00176159
0.00171278
0.00159445
0.00133378
0.000777659
7.25415e-05
9.23041e-05
0.000930069
0.00144352
0.00166183
0.00175079
0.00178323
0.00179353
0.00179648
0.00179745
0.00179802
0.00179853
0.00179872
0.00179766
0.00179195
0.0017727
0.00172015
0.00159587
0.00132608
0.000759906
7.12246e-05
9.36125e-05
0.000936589
0.0014509
0.00166916
0.0017578
0.00178988
0.00179988
0.0018026
0.00180341
0.00180385
0.00180429
0.00180442
0.00180323
0.00179697
0.00177615
0.00172013
0.00158934
0.00130937
0.000732193
6.92543e-05
9.52667e-05
0.00094417
0.00145792
0.00167474
0.00176218
0.0017935
0.0018031
0.00180565
0.00180641
0.0018069
0.00180747
0.00180774
0.00180662
0.00179994
0.0017774
0.00171701
0.00157762
0.00128341
0.000690986
6.64504e-05
9.7374e-05
0.000953571
0.0014661
0.00168067
0.00176635
0.0017966
0.00180569
0.00180805
0.00180878
0.00180938
0.0018102
0.00181074
0.00180983
0.00180273
0.00177792
0.00171144
0.00155938
0.0012433
0.000629003
6.24325e-05
0.000100078
0.000965432
0.00147619
0.00168775
0.00177109
0.00179995
0.00180833
0.00181041
0.00181106
0.00181176
0.00181289
0.00181379
0.00181316
0.00180547
0.00177735
0.00170173
0.00152993
0.0011789
0.000534325
5.65858e-05
0.000103619
0.000980659
0.00148889
0.00169641
0.00177665
0.00180362
0.00181102
0.00181262
0.00181305
0.00181376
0.00181513
0.00181637
0.00181586
0.00180696
0.00177365
0.0016835
0.00147938
0.0010707
0.000392669
4.80095e-05
0.000108429
0.0010007
0.00150505
0.00170689
0.0017828
0.00180712
0.00181305
0.00181385
0.0018138
0.00181427
0.00181565
0.00181691
0.00181601
0.0018046
0.00176226
0.00164768
0.00138765
0.000871222
0.00021911
3.55951e-05
0.000115111
0.00102751
0.00152536
0.00171862
0.00178814
0.00180842
0.00181234
0.0018121
0.00181134
0.00181122
0.00181201
0.00181261
0.00181007
0.00179345
0.00173561
0.00158018
0.00122602
0.000556197
9.29206e-05
2.56086e-05
0.000125469
0.00106419
0.00154892
0.00172809
0.00178811
0.00180412
0.00180599
0.00180406
0.00180207
0.00180095
0.00180047
0.00179952
0.00179366
0.00176861
0.00168797
0.0014748
0.000996981
0.000295363
5.99909e-05
2.49352e-05
0.000140034
0.00110816
0.00156797
0.0017264
0.00177749
0.0017886
0.00178825
0.00178499
0.00178229
0.00178054
0.00177929
0.00177711
0.00176851
0.00173582
0.00163361
0.00136986
0.000822093
0.000235503
7.10422e-05
3.31508e-05
0.000165382
0.00115363
0.00156544
0.00170717
0.0017506
0.00176248
0.00176604
0.00176818
0.00177089
0.00177423
0.00177785
0.00178052
0.00177732
0.00174992
0.00164822
0.00137796
0.000838246
0.000317481
0.00014655
5.11804e-05
0.0001939
0.00115144
0.00153973
0.00169971
0.00177492
0.00181452
0.00184458
0.00187297
0.00190088
0.00192848
0.0019555
0.00198367
0.0020084
0.00201899
0.00195787
0.00173193
0.00121705
0.000677718
0.000303757
7.75694e-05
0.000177899
0.00108639
0.00159126
0.00194095
0.00218542
0.00237172
0.00253364
0.00268419
0.00282192
0.00295103
0.00306627
0.00318857
0.00329619
0.00343211
0.00345351
0.00333428
0.00291687
0.00148238
0.000408676
0.0001021
9.11126e-05
0.000236724
0.00039531
0.000485788
0.000536526
0.000557923
0.000562079
0.000560598
0.000553592
0.000536488
0.000521818
0.000506576
0.000492826
0.000497193
0.000501994
0.000496926
0.000448713
0.000343388
0.000234466
0.000107457
)
;

boundaryField
{
    movingWall
    {
        type            kqRWallFunction;
        value           nonuniform List<scalar> 
20
(
9.11126e-05
0.000236724
0.00039531
0.000485788
0.000536526
0.000557923
0.000562079
0.000560598
0.000553592
0.000536488
0.000521818
0.000506576
0.000492826
0.000497193
0.000501994
0.000496926
0.000448713
0.000343388
0.000234466
0.000107457
)
;
    }
    fixedWalls
    {
        type            kqRWallFunction;
        value           nonuniform List<scalar> 
60
(
1.71046e-05
4.78885e-05
7.43713e-05
8.56137e-05
8.95644e-05
9.11552e-05
9.23041e-05
9.36125e-05
9.52667e-05
9.7374e-05
0.000100078
0.000103619
0.000108429
0.000115111
0.000125469
0.000140034
0.000165382
0.0001939
0.000177899
9.11126e-05
1.71315e-05
4.56295e-05
6.53162e-05
7.18046e-05
7.30301e-05
7.25415e-05
7.12246e-05
6.92543e-05
6.64504e-05
6.24325e-05
5.65858e-05
4.80095e-05
3.55951e-05
2.56086e-05
2.49352e-05
3.31508e-05
5.11804e-05
7.75694e-05
0.0001021
0.000107457
1.71046e-05
4.57511e-05
6.60781e-05
7.35292e-05
7.6025e-05
7.712e-05
7.79163e-05
7.86987e-05
7.95214e-05
8.03734e-05
8.12381e-05
8.26456e-05
8.41661e-05
8.56869e-05
8.69774e-05
8.74159e-05
8.49675e-05
7.44944e-05
4.80403e-05
1.71315e-05
)
;
    }
    frontAndBack
    {
        type            empty;
    }
}


// ************************************************************************* //
