/*--------------------------------*- C++ -*----------------------------------*\
| =========                 |                                                 |
| \\      /  F ield         | OpenFOAM: The Open Source CFD Toolbox           |
|  \\    /   O peration     | Version:  5.0                                   |
|   \\  /    A nd           | Web:      www.OpenFOAM.org                      |
|    \\/     M anipulation  |                                                 |
\*---------------------------------------------------------------------------*/
FoamFile
{
    version     2.0;
    format      ascii;
    class       volScalarField;
    location    "0.5";
    object      nut;
}
// * * * * * * * * * * * * * * * * * * * * * * * * * * * * * * * * * * * * * //

dimensions      [0 2 -1 0 0 0 0];

internalField   nonuniform List<scalar> 
400
(
1.3363e-07
3.57431e-07
5.16235e-07
5.74447e-07
5.93945e-07
6.025e-07
6.08721e-07
6.14833e-07
6.21261e-07
6.27917e-07
6.34672e-07
6.45669e-07
6.57548e-07
6.69429e-07
6.79511e-07
6.82937e-07
6.63809e-07
5.81987e-07
3.75315e-07
1.3384e-07
3.74129e-07
1.26562e-05
2.21739e-05
2.53459e-05
2.65351e-05
2.7173e-05
2.76922e-05
2.82164e-05
2.87765e-05
2.9368e-05
2.99329e-05
3.02873e-05
3.06051e-05
3.0904e-05
3.10828e-05
3.08989e-05
2.95282e-05
2.48877e-05
1.24716e-05
3.5648e-07
5.81026e-07
2.49772e-05
5.63337e-05
7.05646e-05
7.58776e-05
7.7929e-05
7.89695e-05
7.97744e-05
8.05598e-05
8.1356e-05
8.21171e-05
8.27364e-05
8.32947e-05
8.36483e-05
8.34044e-05
8.12263e-05
7.39892e-05
5.56316e-05
2.14728e-05
5.10283e-07
6.68857e-07
2.97049e-05
7.45993e-05
9.94101e-05
0.000109636
0.000113383
0.000114839
0.000115615
0.000116243
0.000116845
0.000117423
0.000117927
0.000118277
0.000118241
0.000116864
0.000111787
9.81529e-05
6.88729e-05
2.3998e-05
5.60974e-07
6.99722e-07
3.13571e-05
8.21503e-05
0.00011289
0.000126392
0.000131372
0.000133083
0.000133764
0.000134172
0.000134522
0.000134848
0.000135099
0.000135169
0.000134638
0.000132241
0.000125007
0.000107419
7.28225e-05
2.43311e-05
5.70548e-07
7.1215e-07
3.19665e-05
8.50121e-05
0.000118292
0.000133332
0.00013891
0.000140721
0.000141309
0.000141561
0.000141733
0.000141879
0.000141948
0.000141806
0.000140929
0.000137878
0.000129395
0.000109834
7.31512e-05
2.38263e-05
5.6673e-07
7.21126e-07
3.22928e-05
8.61938e-05
0.00012035
0.0001359
0.000141655
0.000143467
0.000143988
0.000144155
0.000144239
0.000144292
0.000144271
0.000144008
0.000142921
0.000139458
0.000130231
0.000109593
7.1914e-05
2.28055e-05
5.56442e-07
7.31348e-07
3.25921e-05
8.6913e-05
0.000121283
0.000136875
0.000142601
0.000144369
0.000144847
0.000144976
0.000145025
0.000145044
0.000144984
0.000144657
0.000143424
0.00013962
0.000129716
0.000108085
6.96559e-05
2.1295e-05
5.41049e-07
7.44271e-07
3.29448e-05
8.75963e-05
0.000121939
0.000137378
0.000142984
0.000144687
0.000145134
0.000145248
0.000145288
0.0001453
0.000145223
0.000144846
0.000143453
0.000139234
0.00012848
0.00010559
6.6261e-05
1.91777e-05
5.19143e-07
7.60734e-07
3.33837e-05
8.83883e-05
0.000122606
0.000137796
0.000143233
0.000144861
0.00014528
0.000145383
0.000145421
0.000145434
0.000145343
0.000144907
0.000143298
0.000138492
0.000126508
0.000101776
6.12247e-05
1.628e-05
4.87754e-07
7.8186e-07
3.39382e-05
8.93573e-05
0.000123381
0.000138243
0.000143472
0.000145003
0.000145386
0.000145479
0.000145517
0.000145533
0.000145426
0.000144899
0.000142966
0.000137262
0.000123389
9.58703e-05
5.37814e-05
1.24674e-05
4.42076e-07
8.09522e-07
3.46511e-05
9.05662e-05
0.000124311
0.00013875
0.000143717
0.000145132
0.00014547
0.000145543
0.000145573
0.000145584
0.000145438
0.000144753
0.000142291
0.000135171
0.000118339
8.67021e-05
4.31748e-05
7.87759e-06
3.75074e-07
8.47099e-07
3.55923e-05
9.20931e-05
0.000125417
0.000139294
0.000143926
0.000145187
0.000145454
0.000145487
0.000145485
0.000145461
0.000145225
0.000144258
0.000140934
0.000131565
0.00011023
7.305e-05
2.90836e-05
3.58898e-06
2.78086e-07
8.99308e-07
3.68571e-05
9.40099e-05
0.000126643
0.00013971
0.000143864
0.000144903
0.000145062
0.000145018
0.000144935
0.000144802
0.000144375
0.000142925
0.000138274
0.000125638
9.82533e-05
5.53491e-05
1.45313e-05
1.22791e-06
2.00067e-07
9.80223e-07
3.86104e-05
9.6261e-05
0.000127566
0.000139419
0.000142938
0.000143651
0.000143564
0.000143304
0.000143013
0.000142629
0.000141858
0.000139723
0.000133472
0.000117209
8.40374e-05
3.84793e-05
6.48646e-06
7.34763e-07
1.94806e-07
1.09402e-06
4.07427e-05
9.80437e-05
0.000126864
0.000136986
0.000139399
0.000139458
0.000138819
0.000138092
0.000137364
0.00013655
0.000135324
0.000132641
0.00012555
0.000107894
7.33071e-05
2.98227e-05
5.11359e-06
9.04017e-07
2.5899e-07
1.29204e-06
4.30581e-05
9.69786e-05
0.000121418
0.000128258
0.000129027
0.000127918
0.000126469
0.000125078
0.000123778
0.0001225
0.000121011
0.000118601
0.000112995
9.90355e-05
7.05788e-05
3.17891e-05
7.91959e-06
2.22073e-06
3.99847e-07
1.51485e-06
4.25261e-05
8.74745e-05
0.000103905
0.000107148
0.000105872
0.000103667
0.00010158
9.98038e-05
9.83046e-05
9.70405e-05
9.59701e-05
9.48977e-05
9.29666e-05
8.71236e-05
7.20311e-05
4.45197e-05
1.84146e-05
4.92009e-06
6.06011e-07
1.38984e-06
3.29607e-05
5.72094e-05
6.61096e-05
6.90823e-05
6.99075e-05
7.00912e-05
7.01867e-05
7.02947e-05
7.04423e-05
7.06059e-05
7.09738e-05
7.14779e-05
7.27165e-05
7.23317e-05
6.92893e-05
5.87648e-05
2.5953e-05
4.98843e-06
7.97659e-07
7.11817e-07
1.84941e-06
3.08836e-06
3.79522e-06
4.19161e-06
4.35878e-06
4.39124e-06
4.37967e-06
4.32494e-06
4.19131e-06
4.07671e-06
3.95762e-06
3.8502e-06
3.88432e-06
3.92183e-06
3.88223e-06
3.50557e-06
2.68272e-06
1.83176e-06
8.3951e-07
)
;

boundaryField
{
    movingWall
    {
        type            nutkWallFunction;
        Cmu             0.09;
        kappa           0.41;
        E               9.8;
        value           uniform 0;
    }
    fixedWalls
    {
        type            nutkWallFunction;
        Cmu             0.09;
        kappa           0.41;
        E               9.8;
        value           uniform 0;
    }
    frontAndBack
    {
        type            empty;
    }
}


// ************************************************************************* //
