/*--------------------------------*- C++ -*----------------------------------*\
| =========                 |                                                 |
| \\      /  F ield         | OpenFOAM: The Open Source CFD Toolbox           |
|  \\    /   O peration     | Version:  5.0                                   |
|   \\  /    A nd           | Web:      www.OpenFOAM.org                      |
|    \\/     M anipulation  |                                                 |
\*---------------------------------------------------------------------------*/
FoamFile
{
    version     2.0;
    format      ascii;
    class       volScalarField;
    location    "0.5";
    object      omega;
}
// * * * * * * * * * * * * * * * * * * * * * * * * * * * * * * * * * * * * * //

dimensions      [0 0 -1 0 0 0 0];

internalField   nonuniform List<scalar> 
400
(
128
128
128
128
128
128
128
128
128
128
128
128
128
128
128
128
128
128
128
128
128
38.3497
32.1312
31.2857
30.9763
30.7353
30.497
30.2475
29.9819
29.703
29.443
29.3252
29.2344
29.1464
29.0792
29.0703
29.2888
30.4922
38.6124
128
128
30.4681
20.3327
18.3439
17.7924
17.5904
17.4786
17.3849
17.2921
17.199
17.1131
17.0522
16.9991
16.9632
16.9753
17.1558
17.8702
20.4624
32.6404
128
128
29.2571
17.8061
15.2375
14.4817
14.2383
14.1455
14.0936
14.0504
14.0093
13.9714
13.9406
13.9197
13.9213
14.0024
14.3239
15.3443
18.5929
32.103
128
128
28.9648
17.0742
14.2523
13.3855
13.1092
13.0188
12.9824
12.96
12.9411
12.9244
12.9125
12.9101
12.9384
13.0643
13.472
14.6583
18.2106
32.2321
128
128
28.8637
16.8378
13.9214
13.0077
12.7162
12.6269
12.5981
12.5856
12.5774
12.5713
12.5693
12.5782
12.6227
12.7765
13.2368
14.517
18.2332
32.6387
128
128
28.8011
16.7473
13.8083
12.8829
12.5885
12.5013
12.4766
12.4688
12.4656
12.4645
12.4676
12.4831
12.538
12.7114
13.2084
14.5618
18.4398
33.3212
128
128
28.7367
16.6938
13.7626
12.8424
12.5517
12.4673
12.4449
12.4393
12.4382
12.4396
12.4456
12.4655
12.5291
12.7214
13.2607
14.7046
18.7978
34.3833
128
128
28.6591
16.6437
13.7342
12.8272
12.5434
12.4621
12.4413
12.4367
12.4366
12.4396
12.448
12.4727
12.5473
12.7656
13.364
14.941
19.369
36.0307
128
128
28.564
16.587
13.7078
12.8186
12.5432
12.4649
12.4453
12.4415
12.4423
12.4469
12.4584
12.4896
12.5803
12.8378
13.5283
15.3217
20.3071
38.6365
128
128
28.4468
16.52
13.6791
12.8114
12.5456
12.471
12.4524
12.4489
12.4505
12.4569
12.4723
12.5132
12.6286
12.9486
13.7916
15.9583
21.9203
42.858
128
128
28.301
16.4398
13.6465
12.8047
12.5498
12.4784
12.4604
12.4571
12.4594
12.4679
12.4889
12.5445
12.699
13.1215
14.226
17.0628
24.7992
49.8464
128
128
28.1157
16.3427
13.6097
12.7988
12.5559
12.4878
12.4703
12.4672
12.4705
12.482
12.511
12.5886
12.8046
13.3946
14.9477
18.9958
29.9558
61.0508
128
128
27.8782
16.2256
13.5706
12.7989
12.5704
12.5072
12.4918
12.4904
12.4968
12.5137
12.5549
12.6644
12.9703
13.8144
16.0827
22.1507
38.2758
75.674
128
128
27.5622
16.0908
13.5466
12.8254
12.6217
12.572
12.5662
12.5751
12.5929
12.6234
12.6853
12.8372
13.2508
14.4013
17.5493
25.9096
45.5353
81.6466
128
128
27.199
15.9926
13.6083
12.9757
12.8308
12.8229
12.8584
12.9066
12.9621
13.0303
13.1323
13.3331
13.8257
15.1409
18.6865
27.566
46.0544
78.5851
128
128
26.7924
16.1421
14.0603
13.6491
13.6598
13.806
13.9811
14.1583
14.334
14.513
14.7137
14.9857
15.4867
16.6427
19.5237
26.369
40.088
65.9916
128
128
27.0761
17.602
16.3582
16.5651
17.1388
17.7934
18.4383
19.0462
19.6174
20.1513
20.6697
21.1638
21.7174
22.4724
24.0442
27.3372
36.8032
61.738
128
128
32.9601
27.8147
29.3596
31.6351
33.9266
36.1477
38.2436
40.1441
41.8928
43.4279
44.926
46.1149
47.1985
47.7454
48.1212
49.6364
57.1178
81.9248
128
128
128
128
128
128
128
128
128
128
128
128
128
128
128
128
128
128
128
128
128
)
;

boundaryField
{
    movingWall
    {
        Cmu             0.09;
        kappa           0.41;
        E               9.8;
        beta1           0.075;
        blended         false;
        type            omegaWallFunction;
        value           nonuniform List<scalar> 
20
(
128
128
128
128
128
128
128
128
128
128
128
128
128
128
128
128
128
128
128
128
)
;
    }
    fixedWalls
    {
        Cmu             0.09;
        kappa           0.41;
        E               9.8;
        beta1           0.075;
        blended         false;
        type            omegaWallFunction;
        value           nonuniform List<scalar> 
60
(
128
128
128
128
128
128
128
128
128
128
128
128
128
128
128
128
128
128
128
128
128
128
128
128
128
128
128
128
128
128
128
128
128
128
128
128
128
128
128
128
128
128
128
128
128
128
128
128
128
128
128
128
128
128
128
128
128
128
128
128
)
;
    }
    frontAndBack
    {
        type            empty;
    }
}


// ************************************************************************* //
