/*--------------------------------*- C++ -*----------------------------------*\
| =========                 |                                                 |
| \\      /  F ield         | OpenFOAM: The Open Source CFD Toolbox           |
|  \\    /   O peration     | Version:  5.0                                   |
|   \\  /    A nd           | Web:      www.OpenFOAM.org                      |
|    \\/     M anipulation  |                                                 |
\*---------------------------------------------------------------------------*/
FoamFile
{
    version     2.0;
    format      ascii;
    class       volScalarField;
    location    "0.5";
    object      p;
}
// * * * * * * * * * * * * * * * * * * * * * * * * * * * * * * * * * * * * * //

dimensions      [0 2 -2 0 0 0 0];

internalField   nonuniform List<scalar> 
400
(
9.76301e-09
-2.66859e-06
-1.67831e-06
5.29729e-06
1.94184e-05
4.09605e-05
6.97192e-05
0.000105259
0.000146959
0.000193989
0.000245478
0.000300084
0.000355812
0.000410572
0.000461672
0.000506098
0.000540888
0.000564001
0.00057554
0.000578148
2.41639e-06
-4.83651e-07
3.81565e-07
7.40251e-06
2.14151e-05
4.24907e-05
7.05258e-05
0.000105187
0.000145942
0.000192087
0.000242758
0.000296535
0.000351752
0.000406261
0.000457477
0.00050256
0.000538702
0.000563465
0.000576397
0.000579875
1.07828e-06
-2.75203e-06
-2.71607e-06
4.56388e-06
1.91735e-05
4.02979e-05
6.78197e-05
0.000101645
0.000141471
0.000186785
0.000236828
0.000290431
0.000346044
0.000401697
0.000455028
0.000503412
0.000543808
0.000572309
0.000587324
0.000591795
-7.14149e-06
-1.25682e-05
-1.49606e-05
-8.68303e-06
6.35851e-06
2.80696e-05
5.58814e-05
8.98249e-05
0.000129865
0.000175746
0.00022693
0.000282497
0.000341139
0.000401074
0.000460072
0.00051531
0.000562585
0.000595732
0.000612757
0.000618256
-2.37962e-05
-3.11054e-05
-3.69102e-05
-3.31054e-05
-1.85648e-05
3.72202e-06
3.24691e-05
6.75944e-05
0.000109242
0.00015742
0.000211876
0.000271987
0.000336699
0.000404402
0.0004728
0.000538389
0.000595182
0.000634765
0.000655288
0.000662827
-4.92012e-05
-5.83972e-05
-6.76349e-05
-6.67853e-05
-5.34366e-05
-3.09489e-05
-1.20977e-06
3.55142e-05
7.94886e-05
0.000130987
0.000190087
0.000256527
0.000329594
0.000407897
0.000489057
0.000568794
0.000639264
0.000689697
0.000717651
0.00072941
-8.31949e-05
-9.43652e-05
-0.000106941
-0.000109053
-9.7187e-05
-7.48828e-05
-4.44433e-05
-6.25691e-06
4.00866e-05
9.51657e-05
0.000159465
0.000233197
0.000316163
0.000407407
0.000504732
0.000603382
0.000693812
0.000762305
0.000804149
0.000823705
-0.000125596
-0.000138983
-0.000155037
-0.000160167
-0.000149982
-0.000128262
-9.76298e-05
-5.85128e-05
-1.02982e-05
4.79674e-05
0.000117282
0.000198493
0.000292202
0.000398281
0.00051529
0.000638724
0.000757832
0.000855201
0.000921245
0.000954395
-0.000176422
-0.0001924
-0.000212329
-0.000220743
-0.000212532
-0.000191895
-0.000161786
-0.000122624
-7.35447e-05
-1.31571e-05
6.01568e-05
0.00014812
0.000252399
0.000374362
0.000514244
0.000669158
0.000828488
0.000970911
0.00107817
0.00113424
-0.000235965
-0.000255032
-0.00027944
-0.000291581
-0.000285735
-0.000266794
-0.000238132
-0.000200157
-0.000151751
-9.1073e-05
-1.57875e-05
7.68752e-05
0.000189991
0.00032715
0.000491663
0.000684567
0.000898307
0.00110912
0.00128715
0.00138021
-0.000304865
-0.000327645
-0.000357273
-0.000373628
-0.000370529
-0.000353938
-0.000327802
-0.000292571
-0.000246904
-0.000188559
-0.000114547
-2.10315e-05
9.67948e-05
0.000245368
0.000432795
0.000667468
0.00094991
0.00125887
0.00156031
0.00171087
-0.000384251
-0.000411517
-0.000447118
-0.000467998
-0.000467788
-0.000454083
-0.000431596
-0.000400882
-0.000360477
-0.000307887
-0.000239683
-0.000151209
-3.60128e-05
0.0001152
0.000317295
0.000589706
0.00094823
0.0013875
0.00188767
0.0021361
-0.000476282
-0.000508806
-0.000550872
-0.000575985
-0.000578207
-0.000567576
-0.000549706
-0.000525307
-0.000492913
-0.000450058
-0.000393323
-0.000317866
-0.000216524
-7.78616e-05
0.000120596
0.000410537
0.000828082
0.00140125
0.0021815
0.00261564
-0.000584086
-0.000622893
-0.000671198
-0.000698974
-0.00070207
-0.000694096
-0.000681395
-0.000664816
-0.000643013
-0.000613871
-0.000574645
-0.0005214
-0.00044785
-0.000341794
-0.000180492
7.90762e-05
0.00048257
0.00108044
0.00208585
0.00295161
-0.000716041
-0.000759975
-0.000812123
-0.000838036
-0.000838545
-0.000831857
-0.000824109
-0.000816264
-0.000807016
-0.000794813
-0.000778307
-0.000756139
-0.000725904
-0.000680606
-0.000603024
-0.000468715
-0.000256359
3.11208e-05
0.000776322
0.00270001
-0.000881074
-0.000925622
-0.000975219
-0.000990147
-0.000982305
-0.000973684
-0.00097047
-0.000972403
-0.00097726
-0.000983893
-0.000993164
-0.00100765
-0.00103181
-0.00107009
-0.00112593
-0.00122636
-0.00145142
-0.00160915
-0.00186712
0.00149615
-0.00110515
-0.00112679
-0.00115461
-0.00114144
-0.00111861
-0.00110929
-0.00111476
-0.00112901
-0.00114888
-0.00117385
-0.00120771
-0.00125755
-0.00133674
-0.00146478
-0.00166555
-0.00199718
-0.00262268
-0.00297243
-0.00435685
-0.000101212
-0.00143866
-0.00135796
-0.00132254
-0.00126494
-0.00123733
-0.00123458
-0.00125023
-0.0012774
-0.00131161
-0.00135142
-0.00140417
-0.00148052
-0.00160165
-0.00180576
-0.0021194
-0.00251855
-0.00359846
-0.0035004
-0.00535346
0.000197101
-0.00188907
-0.0015685
-0.0014566
-0.00135268
-0.00130689
-0.00130111
-0.00132303
-0.00135929
-0.00140245
-0.00144942
-0.0015119
-0.00160427
-0.00174446
-0.00201224
-0.00242563
-0.00305479
-0.00393851
-0.00399145
-0.00235594
0.00783217
-0.00244133
-0.000346056
-0.000328119
-0.000557102
-0.000735413
-0.000863014
-0.000975712
-0.00109121
-0.00121186
-0.00131759
-0.00142255
-0.00154869
-0.00173112
-0.00204003
-0.00252901
-0.0030306
-0.00313336
-0.00095861
0.00775111
0.0254642
)
;

boundaryField
{
    movingWall
    {
        type            zeroGradient;
    }
    fixedWalls
    {
        type            zeroGradient;
    }
    frontAndBack
    {
        type            empty;
    }
}


// ************************************************************************* //
