/*--------------------------------*- C++ -*----------------------------------*\
| =========                 |                                                 |
| \\      /  F ield         | OpenFOAM: The Open Source CFD Toolbox           |
|  \\    /   O peration     | Version:  5.0                                   |
|   \\  /    A nd           | Web:      www.OpenFOAM.org                      |
|    \\/     M anipulation  |                                                 |
\*---------------------------------------------------------------------------*/
FoamFile
{
    version     2.0;
    format      ascii;
    class       surfaceScalarField;
    location    "0.5";
    object      phi;
}
// * * * * * * * * * * * * * * * * * * * * * * * * * * * * * * * * * * * * * //

dimensions      [0 3 -1 0 0 0 0];

internalField   nonuniform List<scalar> 
760
(
-1.36396e-08
1.36387e-08
-4.07156e-08
2.70759e-08
-7.62627e-08
3.55471e-08
-1.13292e-07
3.70297e-08
-1.47748e-07
3.44561e-08
-1.7804e-07
3.02916e-08
-2.03541e-07
2.55009e-08
-2.23827e-07
2.02855e-08
-2.38414e-07
1.45876e-08
-2.4677e-07
8.3555e-09
-2.48558e-07
1.78833e-09
-2.43071e-07
-5.48698e-09
-2.29832e-07
-1.32391e-08
-2.08459e-07
-2.13732e-08
-1.78832e-07
-2.96266e-08
-1.41517e-07
-3.73157e-08
-9.87402e-08
-4.27766e-08
-5.58615e-08
-4.28787e-08
-2.115e-08
-3.47116e-08
-2.115e-08
-2.69961e-08
4.06347e-08
-6.22637e-08
6.23435e-08
-1.01376e-07
7.46592e-08
-1.41478e-07
7.71316e-08
-1.7966e-07
7.26386e-08
-2.13864e-07
6.44956e-08
-2.42902e-07
5.45384e-08
-2.66018e-07
4.34021e-08
-2.82623e-07
3.11916e-08
-2.92165e-07
1.78978e-08
-2.93925e-07
3.54883e-09
-2.87477e-07
-1.19353e-08
-2.72323e-07
-2.83935e-08
-2.48222e-07
-4.54737e-08
-2.15433e-07
-6.24157e-08
-1.75137e-07
-7.76123e-08
-1.29826e-07
-8.80873e-08
-8.29591e-08
-8.97456e-08
-3.77392e-08
-7.99315e-08
-5.88892e-08
-3.71099e-08
7.77446e-08
-7.71206e-08
1.02354e-07
-1.16059e-07
1.13598e-07
-1.54451e-07
1.15523e-07
-1.91414e-07
1.09602e-07
-2.25311e-07
9.8392e-08
-2.54698e-07
8.39253e-08
-2.78512e-07
6.72162e-08
-2.95944e-07
4.86239e-08
-3.06296e-07
2.82491e-08
-3.08901e-07
6.15429e-09
-3.03202e-07
-1.76348e-08
-2.88803e-07
-4.27917e-08
-2.65622e-07
-6.86547e-08
-2.34154e-07
-9.38845e-08
-1.95642e-07
-1.16124e-07
-1.51778e-07
-1.3195e-07
-1.03562e-07
-1.37962e-07
-5.07204e-08
-1.32773e-07
-1.0961e-07
-4.18066e-08
1.19551e-07
-8.57653e-08
1.46313e-07
-1.26676e-07
1.54508e-07
-1.65645e-07
1.54493e-07
-2.02796e-07
1.46753e-07
-2.37128e-07
1.32724e-07
-2.67336e-07
1.14134e-07
-2.92279e-07
9.21587e-08
-3.11027e-07
6.73721e-08
-3.22783e-07
4.00053e-08
-3.26822e-07
1.01934e-08
-3.2252e-07
-2.19375e-08
-3.09402e-07
-5.59095e-08
-2.87317e-07
-9.07395e-08
-2.56595e-07
-1.24607e-07
-2.18028e-07
-1.54691e-07
-1.72376e-07
-1.77603e-07
-1.19543e-07
-1.90795e-07
-5.90158e-08
-1.933e-07
-1.68625e-07
-4.38162e-08
1.63367e-07
-9.11535e-08
1.9365e-07
-1.35559e-07
1.98914e-07
-1.7736e-07
1.96293e-07
-2.16719e-07
1.86113e-07
-2.53002e-07
1.69006e-07
-2.85163e-07
1.46295e-07
-3.12152e-07
1.19148e-07
-3.33041e-07
8.82609e-08
-3.46989e-07
5.39536e-08
-3.5319e-07
1.6395e-08
-3.50886e-07
-2.42422e-08
-3.39392e-07
-6.74036e-08
-3.18242e-07
-1.1189e-07
-2.8729e-07
-1.55559e-07
-2.46663e-07
-1.95318e-07
-1.96444e-07
-2.27822e-07
-1.36415e-07
-2.50823e-07
-6.70935e-08
-2.62622e-07
-2.35719e-07
-4.56845e-08
2.09052e-07
-9.64854e-08
2.44451e-07
-1.45203e-07
2.47632e-07
-1.9127e-07
2.4236e-07
-2.34442e-07
2.29285e-07
-2.74121e-07
2.08685e-07
-3.09446e-07
1.8162e-07
-3.39521e-07
1.49222e-07
-3.63497e-07
1.12237e-07
-3.80543e-07
7.09997e-08
-3.89783e-07
2.56346e-08
-3.90276e-07
-2.37491e-08
-3.81015e-07
-7.66639e-08
-3.61047e-07
-1.31858e-07
-3.29555e-07
-1.87051e-07
-2.85894e-07
-2.38979e-07
-2.29528e-07
-2.84188e-07
-1.60172e-07
-3.2018e-07
-7.90214e-08
-3.43773e-07
-3.1474e-07
-4.85814e-08
2.57633e-07
-1.03621e-07
2.99491e-07
-1.57382e-07
3.01393e-07
-2.08658e-07
2.93635e-07
-2.56748e-07
2.77375e-07
-3.00931e-07
2.52868e-07
-3.40445e-07
2.21134e-07
-3.74557e-07
1.83334e-07
-4.02556e-07
1.40236e-07
-4.23675e-07
9.21186e-08
-4.37002e-07
3.8962e-08
-4.41428e-07
-1.93232e-08
-4.35559e-07
-8.25326e-08
-4.17853e-07
-1.49564e-07
-3.86659e-07
-2.18244e-07
-3.40315e-07
-2.85323e-07
-2.77225e-07
-3.47278e-07
-1.9617e-07
-4.01234e-07
-9.79302e-08
-4.42013e-07
-4.12671e-07
-5.28462e-08
3.1048e-07
-1.13303e-07
3.59948e-07
-1.7299e-07
3.61079e-07
-2.30261e-07
3.50907e-07
-2.84055e-07
3.31169e-07
-3.33518e-07
3.0233e-07
-3.77975e-07
2.65591e-07
-4.16889e-07
2.22248e-07
-4.49751e-07
1.73098e-07
-4.7594e-07
1.18309e-07
-4.94591e-07
5.76125e-08
-5.0452e-07
-9.39388e-09
-5.03933e-07
-8.31197e-08
-4.90693e-07
-1.62805e-07
-4.62141e-07
-2.46795e-07
-4.15129e-07
-3.32336e-07
-3.45983e-07
-4.16424e-07
-2.50708e-07
-4.96509e-07
-1.27548e-07
-5.65173e-07
-5.40219e-07
-5.85945e-08
3.69074e-07
-1.25863e-07
4.27216e-07
-1.92519e-07
4.27735e-07
-2.56559e-07
4.14947e-07
-3.16653e-07
3.91263e-07
-3.71892e-07
3.57569e-07
-4.21756e-07
3.15455e-07
-4.65989e-07
2.66481e-07
-5.04391e-07
2.115e-07
-5.36616e-07
1.50533e-07
-5.61958e-07
8.2954e-08
-5.79444e-07
8.09252e-09
-5.86861e-07
-7.57027e-08
-5.8169e-07
-1.67976e-07
-5.60131e-07
-2.68355e-07
-5.16947e-07
-3.75519e-07
-4.44789e-07
-4.88582e-07
-3.33512e-07
-6.07786e-07
-1.73881e-07
-7.24804e-07
-7.141e-07
-6.60226e-08
4.35097e-07
-1.41714e-07
5.02908e-07
-2.16539e-07
5.0256e-07
-2.88117e-07
4.86525e-07
-3.54933e-07
4.58079e-07
-4.16147e-07
4.18783e-07
-4.71538e-07
3.70846e-07
-5.21273e-07
3.16216e-07
-5.6562e-07
2.55848e-07
-6.04701e-07
1.89614e-07
-6.38278e-07
1.16531e-07
-6.6536e-07
3.51743e-08
-6.8451e-07
-5.65526e-08
-6.92651e-07
-1.59835e-07
-6.85084e-07
-2.75922e-07
-6.54032e-07
-4.06571e-07
-5.86451e-07
-5.56164e-07
-4.60463e-07
-7.33774e-07
-2.47028e-07
-9.38239e-07
-9.61128e-07
-7.55772e-08
5.10674e-07
-1.61667e-07
5.88998e-07
-2.46017e-07
5.86909e-07
-3.25825e-07
5.66334e-07
-3.99492e-07
5.31746e-07
-4.66453e-07
4.85744e-07
-5.26999e-07
4.31392e-07
-5.81915e-07
3.71132e-07
-6.3213e-07
3.06062e-07
-6.78441e-07
2.35925e-07
-7.21316e-07
1.59407e-07
-7.60616e-07
7.44741e-08
-7.95581e-07
-2.15874e-08
-8.23762e-07
-1.31654e-07
-8.4024e-07
-2.59444e-07
-8.34874e-07
-4.11937e-07
-7.86977e-07
-6.0406e-07
-6.54416e-07
-8.66335e-07
-3.64821e-07
-1.22783e-06
-1.32595e-06
-8.81081e-08
5.98782e-07
-1.87175e-07
6.88065e-07
-2.82532e-07
6.82267e-07
-3.70962e-07
6.54763e-07
-4.51035e-07
6.11819e-07
-5.22815e-07
5.57524e-07
-5.87403e-07
4.9598e-07
-6.4643e-07
4.3016e-07
-7.0167e-07
3.61301e-07
-7.5482e-07
2.89075e-07
-8.07402e-07
2.11989e-07
-8.60615e-07
1.27687e-07
-9.15324e-07
3.31213e-08
-9.7092e-07
-7.60578e-08
-1.02398e-06
-2.06382e-07
-1.06384e-06
-3.72077e-07
-1.06218e-06
-6.05717e-07
-9.47001e-07
-9.81519e-07
-5.67676e-07
-1.60716e-06
-1.89362e-06
-1.05268e-07
7.0405e-07
-2.20689e-07
8.03486e-07
-3.28323e-07
7.89901e-07
-4.24919e-07
7.51359e-07
-5.09819e-07
6.96718e-07
-5.8433e-07
6.32036e-07
-6.50737e-07
5.62387e-07
-7.11717e-07
4.91139e-07
-7.69997e-07
4.19581e-07
-8.28294e-07
3.47373e-07
-8.89436e-07
2.73131e-07
-9.56484e-07
1.94734e-07
-1.03275e-06
1.09388e-07
-1.12146e-06
1.26552e-08
-1.22339e-06
-1.04452e-07
-1.3325e-06
-2.62974e-07
-1.41993e-06
-5.18281e-07
-1.38807e-06
-1.01338e-06
-9.30935e-07
-2.06429e-06
-2.82456e-06
-1.291e-07
8.3315e-07
-2.65284e-07
9.3967e-07
-3.85561e-07
9.10178e-07
-4.87899e-07
8.53698e-07
-5.73923e-07
7.82742e-07
-6.47239e-07
7.05351e-07
-7.11648e-07
6.26796e-07
-7.70949e-07
5.50441e-07
-8.28736e-07
4.77368e-07
-8.88606e-07
4.07243e-07
-9.54637e-07
3.39163e-07
-1.03191e-06
2.72011e-07
-1.12697e-06
2.04448e-07
-1.24791e-06
1.33591e-07
-1.40387e-06
5.15086e-08
-1.60253e-06
-6.43111e-08
-1.83289e-06
-2.8792e-07
-1.96107e-06
-8.85201e-07
-1.47811e-06
-2.54725e-06
-4.30268e-06
-1.66174e-07
9.99324e-07
-3.25446e-07
1.09894e-06
-4.54196e-07
1.03893e-06
-5.55295e-07
9.54797e-07
-6.34923e-07
8.6237e-07
-7.00254e-07
7.70683e-07
-7.56685e-07
6.83226e-07
-8.08937e-07
6.02693e-07
-8.60952e-07
5.29384e-07
-9.16589e-07
4.62879e-07
-9.80544e-07
4.03118e-07
-1.05925e-06
3.50715e-07
-1.16184e-06
3.07038e-07
-1.30076e-06
2.72516e-07
-1.49245e-06
2.43199e-07
-1.75573e-06
1.98966e-07
-2.07123e-06
2.75812e-08
-2.2842e-06
-6.72231e-07
-1.85683e-06
-2.97463e-06
-6.1595e-06
-2.15221e-07
1.21455e-06
-3.97033e-07
1.28075e-06
-5.22841e-07
1.16474e-06
-6.08022e-07
1.03998e-06
-6.67866e-07
9.22214e-07
-7.13608e-07
8.16425e-07
-7.53606e-07
7.23225e-07
-7.92e-07
6.41086e-07
-8.31578e-07
5.68962e-07
-8.75195e-07
5.06496e-07
-9.26865e-07
4.54789e-07
-9.92554e-07
4.16404e-07
-1.08153e-06
3.96015e-07
-1.20622e-06
3.9721e-07
-1.38082e-06
4.17798e-07
-1.61619e-06
4.3433e-07
-1.88623e-06
2.97624e-07
-1.89256e-06
-6.65897e-07
-1.46822e-06
-3.39897e-06
-7.62772e-06
-2.93924e-07
1.50847e-06
-4.67922e-07
1.45475e-06
-5.48969e-07
1.24578e-06
-5.89213e-07
1.08022e-06
-6.148e-07
9.478e-07
-6.33004e-07
8.34629e-07
-6.48139e-07
7.3836e-07
-6.62992e-07
6.55939e-07
-6.79368e-07
5.85338e-07
-6.98571e-07
5.25699e-07
-7.22884e-07
4.79101e-07
-7.55423e-07
4.48943e-07
-8.02624e-07
4.43216e-07
-8.72918e-07
4.67504e-07
-9.69568e-07
5.14447e-07
-1.06752e-06
5.32284e-07
-1.21699e-06
4.47088e-07
-1.10911e-06
-7.73776e-07
-6.83949e-07
-3.82413e-06
-8.31167e-06
-4.15597e-07
1.92407e-06
-4.5504e-07
1.49419e-06
-4.34165e-07
1.22491e-06
-3.97326e-07
1.04338e-06
-3.53976e-07
9.04451e-07
-3.11031e-07
7.91684e-07
-2.71788e-07
6.99117e-07
-2.36859e-07
6.21009e-07
-2.06087e-07
5.54567e-07
-1.77902e-07
4.97514e-07
-1.52348e-07
4.53548e-07
-1.27246e-07
4.2384e-07
-1.03601e-07
4.19572e-07
-8.7519e-08
4.51421e-07
-8.16496e-08
5.08578e-07
-7.92129e-08
5.29848e-07
1.11694e-07
2.56182e-07
9.84341e-10
-6.63066e-07
2.49313e-07
-4.07246e-06
-8.06236e-06
-3.43476e-07
2.26754e-06
-1.16415e-07
1.26713e-06
1.47773e-07
9.60721e-07
3.92891e-07
7.98265e-07
6.07485e-07
6.89857e-07
7.95411e-07
6.03757e-07
9.61788e-07
5.3274e-07
1.11162e-06
4.71177e-07
1.24648e-06
4.19708e-07
1.37138e-06
3.72613e-07
1.48792e-06
3.37006e-07
1.60378e-06
3.07985e-07
1.73145e-06
2.91902e-07
1.85909e-06
3.23783e-07
2.04024e-06
3.27429e-07
2.25683e-06
3.13254e-07
2.4838e-06
2.92076e-08
2.66667e-06
-8.45935e-07
1.88655e-06
-3.29233e-06
-6.17581e-06
2.26754e-06
3.53468e-06
4.4954e-06
5.29366e-06
5.98352e-06
6.58728e-06
7.12002e-06
7.59119e-06
8.0109e-06
8.38351e-06
8.72052e-06
9.0285e-06
9.32041e-06
9.64419e-06
9.97162e-06
1.02849e-05
1.03141e-05
9.46815e-06
6.17581e-06
)
;

boundaryField
{
    movingWall
    {
        type            calculated;
        value           uniform 0;
    }
    fixedWalls
    {
        type            calculated;
        value           uniform 0;
    }
    frontAndBack
    {
        type            empty;
        value           nonuniform 0();
    }
}


// ************************************************************************* //
