/*--------------------------------*- C++ -*----------------------------------*\
| =========                 |                                                 |
| \\      /  F ield         | OpenFOAM: The Open Source CFD Toolbox           |
|  \\    /   O peration     | Version:  5.0                                   |
|   \\  /    A nd           | Web:      www.OpenFOAM.org                      |
|    \\/     M anipulation  |                                                 |
\*---------------------------------------------------------------------------*/
FoamFile
{
    version     2.0;
    format      ascii;
    class       volVectorField;
    location    "0.5";
    object      U;
}
// * * * * * * * * * * * * * * * * * * * * * * * * * * * * * * * * * * * * * //

dimensions      [0 1 -1 0 0 0 0];

internalField   nonuniform List<vector> 
400
(
(-8.8224e-05 8.95827e-05 0)
(-0.000496714 0.00024423 0)
(-0.00116186 0.000345465 0)
(-0.00190164 0.000353801 0)
(-0.00262215 0.000321148 0)
(-0.0032713 0.00027896 0)
(-0.00383 0.000234516 0)
(-0.00428818 0.000187421 0)
(-0.00463937 0.000135472 0)
(-0.00487034 7.78847e-05 0)
(-0.00496891 2.20554e-05 0)
(-0.00493521 -4.72776e-05 0)
(-0.0047468 -0.000119381 0)
(-0.00440058 -0.000196215 0)
(-0.0038899 -0.000276815 0)
(-0.00321783 -0.000357161 0)
(-0.00240969 -0.000421487 0)
(-0.00154003 -0.000426849 0)
(-0.000729085 -0.000318149 0)
(-0.000163629 -0.000156887 0)
(-0.000244743 0.00049484 0)
(-0.000887553 0.000891426 0)
(-0.00163004 0.00113446 0)
(-0.00242979 0.00118426 0)
(-0.00322549 0.00110816 0)
(-0.00395569 0.00097631 0)
(-0.00459134 0.000821423 0)
(-0.00511517 0.000651921 0)
(-0.00551452 0.000467479 0)
(-0.00577752 0.000267015 0)
(-0.00589187 5.11601e-05 0)
(-0.00584617 -0.000181732 0)
(-0.00563042 -0.000430955 0)
(-0.00523709 -0.000691603 0)
(-0.00466511 -0.000954046 0)
(-0.00392646 -0.00119411 0)
(-0.00305601 -0.00135819 0)
(-0.00213084 -0.00136024 0)
(-0.00121534 -0.00113744 0)
(-0.000350274 -0.000742528 0)
(-0.000369893 0.00116788 0)
(-0.00117533 0.00163519 0)
(-0.00193754 0.00188411 0)
(-0.00270263 0.00193895 0)
(-0.00346842 0.00183848 0)
(-0.00418614 0.00164303 0)
(-0.0048245 0.00139495 0)
(-0.00536032 0.00111257 0)
(-0.0057758 0.000800988 0)
(-0.00605614 0.000461025 0)
(-0.00618777 9.31509e-05 0)
(-0.00615836 -0.000302486 0)
(-0.00595785 -0.00072176 0)
(-0.00558067 -0.00115433 0)
(-0.00502957 -0.00157837 0)
(-0.00431984 -0.00195174 0)
(-0.00348319 -0.00220676 0)
(-0.00257599 -0.00226821 0)
(-0.00159307 -0.00210233 0)
(-0.000496108 -0.00166075 0)
(-0.000411542 0.0019661 0)
(-0.00132689 0.00246849 0)
(-0.00214284 0.00266088 0)
(-0.00292208 0.0026834 0)
(-0.00369204 0.00255071 0)
(-0.00441635 0.00230046 0)
(-0.00506821 0.00197074 0)
(-0.00562431 0.00158438 0)
(-0.00606484 0.00115125 0)
(-0.00637293 0.000674846 0)
(-0.00653348 0.000156883 0)
(-0.00653286 -0.000400022 0)
(-0.00635956 -0.000988473 0)
(-0.00600647 -0.00159155 0)
(-0.00547394 -0.00217694 0)
(-0.00477162 -0.00269213 0)
(-0.00392077 -0.00306945 0)
(-0.00296169 -0.00325348 0)
(-0.00185672 -0.0032286 0)
(-0.000567643 -0.00276582 0)
(-0.000418294 0.00282373 0)
(-0.00140382 0.00338366 0)
(-0.00229423 0.00351294 0)
(-0.00313113 0.00348611 0)
(-0.00394861 0.00330886 0)
(-0.00471409 0.00299976 0)
(-0.00540508 0.00258852 0)
(-0.00600133 0.00209871 0)
(-0.00648396 0.00154331 0)
(-0.00683575 0.000928086 0)
(-0.00704041 0.000256013 0)
(-0.00708218 -0.000468726 0)
(-0.00694619 -0.00123593 0)
(-0.00662 -0.00202329 0)
(-0.00609584 -0.00279071 0)
(-0.00537208 -0.00347917 0)
(-0.00445848 -0.00402296 0)
(-0.00338851 -0.00437807 0)
(-0.00211591 -0.00452379 0)
(-0.00063319 -0.00402222 0)
(-0.000426515 0.00371673 0)
(-0.00147405 0.00436359 0)
(-0.00244815 0.00444303 0)
(-0.00336882 0.00436285 0)
(-0.00426602 0.00413146 0)
(-0.00510343 0.00375644 0)
(-0.00585983 0.00326059 0)
(-0.00651835 0.00266661 0)
(-0.00706263 0.00198903 0)
(-0.00747649 0.00123467 0)
(-0.0077431 0.000406624 0)
(-0.00784434 -0.000491074 0)
(-0.00776035 -0.00144766 0)
(-0.00747046 -0.0024381 0)
(-0.00695491 -0.00341754 0)
(-0.0061972 -0.00432254 0)
(-0.00519408 -0.00508653 0)
(-0.00397473 -0.00566506 0)
(-0.00248597 -0.00601576 0)
(-0.000741231 -0.00546971 0)
(-0.00044826 0.00465656 0)
(-0.00157395 0.0054181 0)
(-0.00264356 0.00546469 0)
(-0.0036654 0.00533349 0)
(-0.00466407 0.0050413 0)
(-0.00559605 0.0045923 0)
(-0.00643915 0.00400627 0)
(-0.00717944 0.00330568 0)
(-0.00780398 0.00250564 0)
(-0.00829879 0.00161255 0)
(-0.00864754 0.000627732 0)
(-0.00883024 -0.000447427 0)
(-0.00882158 -0.00160515 0)
(-0.00859109 -0.00282132 0)
(-0.00810429 -0.00405028 0)
(-0.00732541 -0.00522627 0)
(-0.00623133 -0.00627962 0)
(-0.0048367 -0.00715863 0)
(-0.00306116 -0.00778864 0)
(-0.000921371 -0.00721706 0)
(-0.000485125 0.00566788 0)
(-0.00171594 0.00656826 0)
(-0.00289907 0.00659505 0)
(-0.00403799 0.00641569 0)
(-0.00515437 0.00605742 0)
(-0.00619678 0.00552634 0)
(-0.00714177 0.00484367 0)
(-0.00797872 0.00403344 0)
(-0.00869919 0.00311115 0)
(-0.009293 0.00208155 0)
(-0.00974593 0.000942066 0)
(-0.010038 -0.00031152 0)
(-0.0101394 -0.00167896 0)
(-0.0100099 -0.00314176 0)
(-0.00959874 -0.0046594 0)
(-0.0088446 -0.00616961 0)
(-0.00768982 -0.00760473 0)
(-0.00610923 -0.00891003 0)
(-0.00394979 -0.00997068 0)
(-0.00120939 -0.0094346 0)
(-0.000537251 0.00677924 0)
(-0.00190466 0.00784012 0)
(-0.00322413 0.00785372 0)
(-0.0044972 0.00762535 0)
(-0.00574506 0.00719398 0)
(-0.00690872 0.00657177 0)
(-0.00796485 0.00578555 0)
(-0.00890781 0.00486326 0)
(-0.00973562 0.00382126 0)
(-0.0104442 0.00266161 0)
(-0.0110241 0.00137562 0)
(-0.0114592 -5.02513e-05 0)
(-0.0117181 -0.001624 0)
(-0.0117532 -0.00334324 0)
(-0.0114989 -0.00518121 0)
(-0.0108617 -0.00709233 0)
(-0.00972816 -0.00903027 0)
(-0.00798805 -0.0109637 0)
(-0.00532189 -0.0127473 0)
(-0.00166613 -0.0123804 0)
(-0.000606377 0.00802224 0)
(-0.0021466 0.00926359 0)
(-0.0036295 0.00926323 0)
(-0.00505522 0.0089782 0)
(-0.00644635 0.00846161 0)
(-0.00773707 0.00773606 0)
(-0.00890686 0.00683833 0)
(-0.00995811 0.00580281 0)
(-0.0108984 0.00464745 0)
(-0.0117332 0.00337126 0)
(-0.0124626 0.00195823 0)
(-0.0130753 0.000383512 0)
(-0.0135483 -0.00137594 0)
(-0.0138372 -0.00333872 0)
(-0.0138638 -0.00550565 0)
(-0.0135012 -0.00787246 0)
(-0.0125574 -0.0104572 0)
(-0.0107723 -0.0133257 0)
(-0.00745703 -0.0163885 0)
(-0.00240715 -0.0164564 0)
(-0.000697364 0.00943455 0)
(-0.00245565 0.0108742 0)
(-0.00413423 0.0108494 0)
(-0.00573155 0.0104895 0)
(-0.00727381 0.00986672 0)
(-0.00868987 0.00901991 0)
(-0.00996636 0.00800044 0)
(-0.011118 0.00685165 0)
(-0.0121658 0.005594 0)
(-0.0131286 0.00422363 0)
(-0.0140204 0.00271736 0)
(-0.0148455 0.00103882 0)
(-0.015597 -0.000855664 0)
(-0.016246 -0.0030083 0)
(-0.0167213 -0.00546415 0)
(-0.0168727 -0.00829725 0)
(-0.0164191 -0.0116687 0)
(-0.0148876 -0.0159097 0)
(-0.0107157 -0.0212471 0)
(-0.0038133 -0.0223059 0)
(-0.000820054 0.0110697 0)
(-0.00285778 0.0127177 0)
(-0.0047709 0.0126413 0)
(-0.00655601 0.0121718 0)
(-0.00824813 0.011408 0)
(-0.00977458 0.0104135 0)
(-0.0111361 0.00925853 0)
(-0.0123653 0.00799728 0)
(-0.0135003 0.00665321 0)
(-0.0145776 0.00522036 0)
(-0.0156299 0.00366997 0)
(-0.0166855 0.00195615 0)
(-0.0177678 2.01911e-05 0)
(-0.0188854 -0.00220687 0)
(-0.0200047 -0.00482842 0)
(-0.0209887 -0.00803965 0)
(-0.0215044 -0.0122633 0)
(-0.0208396 -0.0184047 0)
(-0.0157222 -0.0276388 0)
(-0.00685788 -0.0309346 0)
(-0.000994517 0.0129903 0)
(-0.00340138 0.0148523 0)
(-0.0055897 0.014669 0)
(-0.00756623 0.0140277 0)
(-0.00938634 0.0130685 0)
(-0.0109846 0.0118892 0)
(-0.0123865 0.0105812 0)
(-0.0136486 0.00920901 0)
(-0.0148289 0.0077986 0)
(-0.0159828 0.00634312 0)
(-0.0171654 0.00481248 0)
(-0.0184358 0.00315911 0)
(-0.0198609 0.00131972 0)
(-0.0215145 -0.000793067 0)
(-0.0234457 -0.0033364 0)
(-0.0256049 -0.0066541 0)
(-0.0277583 -0.0115512 0)
(-0.0291303 -0.0199588 0)
(-0.0239657 -0.0352891 0)
(-0.0126308 -0.0443674 0)
(-0.00124657 0.0153767 0)
(-0.00414889 0.0173649 0)
(-0.00664928 0.0169554 0)
(-0.00878663 0.016035 0)
(-0.0106708 0.0148003 0)
(-0.0122621 0.0133891 0)
(-0.0136257 0.0119089 0)
(-0.0148459 0.0104294 0)
(-0.0160001 0.00897584 0)
(-0.0171597 0.00754129 0)
(-0.0183993 0.00610105 0)
(-0.0198093 0.00461941 0)
(-0.0215086 0.00304906 0)
(-0.0236524 0.0013108 0)
(-0.0264123 -0.00076837 0)
(-0.0299358 -0.00362356 0)
(-0.0344071 -0.00845793 0)
(-0.0396768 -0.0188133 0)
(-0.0356545 -0.0435796 0)
(-0.0205738 -0.0665827 0)
(-0.00168748 0.018175 0)
(-0.00524544 0.0203036 0)
(-0.00798986 0.0194692 0)
(-0.0101659 0.0181049 0)
(-0.0119686 0.0164928 0)
(-0.0134061 0.014802 0)
(-0.0146032 0.0131394 0)
(-0.01567 0.0115654 0)
(-0.0166939 0.0100951 0)
(-0.0177504 0.00872117 0)
(-0.018921 0.00743255 0)
(-0.0203142 0.006221 0)
(-0.0220877 0.00508269 0)
(-0.0244622 0.00398896 0)
(-0.0276981 0.00281617 0)
(-0.0321342 0.00113876 0)
(-0.0384648 -0.00272885 0)
(-0.0459806 -0.0157111 0)
(-0.0458283 -0.0547674 0)
(-0.0197548 -0.10188 0)
(-0.00227501 0.0223664 0)
(-0.00667515 0.0237824 0)
(-0.00945789 0.02207 0)
(-0.0113888 0.0200314 0)
(-0.0128378 0.0179483 0)
(-0.0138567 0.0159906 0)
(-0.0146927 0.0141714 0)
(-0.0154604 0.0125305 0)
(-0.0162243 0.0110664 0)
(-0.0170376 0.00977189 0)
(-0.017965 0.00865644 0)
(-0.0191012 0.00775151 0)
(-0.0206014 0.00711601 0)
(-0.0226854 0.0067935 0)
(-0.0255829 0.00673256 0)
(-0.0295705 0.00650444 0)
(-0.0353682 0.00360183 0)
(-0.0407376 -0.013878 0)
(-0.0453428 -0.0680135 0)
(0.000125505 -0.143751 0)
(-0.00340311 0.0267779 0)
(-0.00860957 0.0273767 0)
(-0.0104026 0.0243538 0)
(-0.0114014 0.0214442 0)
(-0.0120759 0.0188944 0)
(-0.0125181 0.0166534 0)
(-0.0128287 0.0147394 0)
(-0.0131106 0.0130841 0)
(-0.0134097 0.0116526 0)
(-0.0137514 0.0104346 0)
(-0.0141669 0.00946373 0)
(-0.0147025 0.00880262 0)
(-0.0154579 0.00857281 0)
(-0.0165824 0.00886504 0)
(-0.0181928 0.00957939 0)
(-0.0202802 0.0100233 0)
(-0.0240736 0.00754643 0)
(-0.0196831 -0.0155151 0)
(-0.0367895 -0.0761827 0)
(0.0208901 -0.172484 0)
(-0.00612837 0.0337764 0)
(-0.00980342 0.0304209 0)
(-0.00874523 0.0253568 0)
(-0.00838373 0.021731 0)
(-0.00754698 0.01888 0)
(-0.0066582 0.0165255 0)
(-0.00581957 0.0145612 0)
(-0.00506649 0.012898 0)
(-0.00440326 0.0114895 0)
(-0.00380633 0.0103112 0)
(-0.00326466 0.00941166 0)
(-0.00273274 0.00885858 0)
(-0.00222639 0.00882764 0)
(-0.00179032 0.00949056 0)
(-0.00161015 0.0106491 0)
(-0.000759516 0.0114433 0)
(-0.00431898 0.00896053 0)
(0.0109014 -0.0119229 0)
(-0.0154708 -0.0893229 0)
(0.033148 -0.184062 0)
(-0.00634144 0.0423191 0)
(-0.00582405 0.0243232 0)
(0.000622911 0.0197153 0)
(0.00550328 0.0172113 0)
(0.0100761 0.0152333 0)
(0.0140968 0.0135155 0)
(0.0176458 0.0120739 0)
(0.0208201 0.0108923 0)
(0.0236559 0.00991342 0)
(0.0262704 0.0090161 0)
(0.0286494 0.00829811 0)
(0.0310541 0.00775978 0)
(0.0334331 0.0077321 0)
(0.0360811 0.00831156 0)
(0.0387811 0.00936499 0)
(0.042866 0.00829185 0)
(0.0432395 2.8855e-05 0)
(0.0541327 -0.0210729 0)
(0.035426 -0.0878352 0)
(0.0655967 -0.158301 0)
(0.0476081 0.044865 0)
(0.0545663 0.0332886 0)
(0.0780641 0.0246341 0)
(0.0983929 0.0192003 0)
(0.113855 0.0158355 0)
(0.126449 0.0134598 0)
(0.137408 0.0115875 0)
(0.147418 0.00987236 0)
(0.156209 0.00837071 0)
(0.16445 0.00704761 0)
(0.171078 0.00609397 0)
(0.178301 0.00529893 0)
(0.183497 0.00446635 0)
(0.190012 0.0049386 0)
(0.194427 0.00368863 0)
(0.20009 0.00566454 0)
(0.202829 0.00215423 0)
(0.197422 -0.00375234 0)
(0.169416 -0.0131799 0)
(0.130703 -0.0319467 0)
)
;

boundaryField
{
    movingWall
    {
        type            fixedValue;
        value           uniform (1 0 0);
    }
    fixedWalls
    {
        type            noSlip;
    }
    frontAndBack
    {
        type            empty;
    }
}


// ************************************************************************* //
