/*--------------------------------*- C++ -*----------------------------------*\
| =========                 |                                                 |
| \\      /  F ield         | OpenFOAM: The Open Source CFD Toolbox           |
|  \\    /   O peration     | Version:  5.0                                   |
|   \\  /    A nd           | Web:      www.OpenFOAM.org                      |
|    \\/     M anipulation  |                                                 |
\*---------------------------------------------------------------------------*/
FoamFile
{
    version     2.0;
    format      ascii;
    class       volScalarField;
    location    "9";
    object      epsilon;
}
// * * * * * * * * * * * * * * * * * * * * * * * * * * * * * * * * * * * * * //

dimensions      [0 2 -3 0 0 0 0];

internalField   nonuniform List<scalar> 
400
(
2.34956e-05
8.43622e-05
0.000328515
0.000649973
0.00085979
0.0010218
0.00115368
0.00127985
0.00139079
0.00150422
0.0016106
0.00172293
0.00183602
0.00190921
0.0019423
0.00194404
0.00179652
0.0014178
0.000876546
0.000631928
0.000104979
0.000301576
0.000769232
0.00103654
0.00109867
0.00112108
0.0011285
0.00116854
0.00121839
0.00130625
0.0014165
0.00156007
0.00173042
0.00193177
0.00215308
0.00236982
0.00247082
0.00247659
0.00194847
0.00127389
0.000335475
0.000873913
0.00108871
0.00111396
0.0010856
0.00106783
0.00105813
0.00109218
0.00115194
0.0012283
0.00131685
0.00141636
0.00153543
0.00168323
0.00186688
0.00209034
0.00228511
0.00236255
0.00217452
0.00162834
0.00074104
0.00115348
0.00116466
0.00107875
0.00100976
0.000968106
0.000958476
0.000973031
0.000998576
0.00102601
0.00106449
0.0011255
0.00122197
0.00136482
0.00157538
0.00186114
0.00217805
0.00232407
0.00227924
0.00185913
0.00105549
0.00130022
0.00113634
0.000988455
0.000886976
0.000835144
0.000802759
0.000777872
0.000755944
0.000746027
0.000745432
0.00078381
0.000866345
0.00101475
0.0012587
0.00162652
0.00211413
0.00240926
0.00244963
0.0020318
0.00121854
0.00129156
0.00106159
0.000874577
0.000769855
0.000701252
0.000639592
0.00057906
0.000523527
0.00048859
0.000475165
0.000485663
0.000555113
0.000693004
0.000944163
0.00136436
0.00199726
0.00255384
0.00269719
0.00217184
0.00124493
0.00124224
0.000959033
0.000774968
0.000667495
0.000583108
0.000500007
0.000419577
0.000350771
0.0003064
0.000287346
0.000285264
0.000333707
0.000446471
0.000672697
0.00109902
0.00182919
0.00268885
0.0029815
0.00228058
0.00122615
0.00114121
0.000865964
0.000693223
0.000585456
0.000491355
0.000397627
0.000311404
0.000242844
0.000200045
0.000181072
0.000177439
0.000207359
0.000287124
0.000469993
0.000860598
0.00161812
0.00275673
0.00333058
0.00237022
0.00117909
0.00102981
0.000785614
0.000629607
0.00052466
0.000427177
0.000331301
0.000247154
0.000184028
0.000146668
0.000130653
0.000128003
0.000148112
0.000203369
0.000339969
0.00068132
0.00145382
0.00277413
0.00367545
0.00243325
0.00108845
0.000935184
0.000721118
0.00058212
0.000482384
0.000386867
0.000293703
0.000214248
0.000157435
0.000124421
0.000110375
0.000109294
0.000124147
0.000165009
0.000267985
0.000548229
0.00128652
0.00276597
0.00404323
0.00248256
0.000993904
0.000854294
0.000669904
0.000547673
0.000455248
0.000364359
0.000277413
0.000205997
0.000154495
0.000122753
0.000107057
0.000105865
0.000117592
0.000151365
0.000235684
0.000473237
0.00115476
0.00272894
0.00437136
0.00250696
0.000910958
0.000802429
0.000634991
0.000525006
0.000438871
0.000357058
0.000278806
0.000210905
0.000161339
0.000130316
0.00011467
0.000113707
0.000122152
0.000149825
0.000225806
0.000439142
0.00106529
0.00270805
0.00465925
0.00251839
0.000821738
0.000761294
0.000614747
0.000513748
0.00043637
0.000360242
0.000286993
0.000224749
0.000178617
0.000148731
0.000132322
0.000131638
0.00013937
0.000164739
0.000232036
0.000429338
0.00102503
0.0026999
0.00480897
0.00252126
0.000738067
0.000741312
0.000622117
0.000519364
0.000442977
0.000371262
0.000305343
0.000249673
0.000206832
0.000178056
0.000160236
0.000159468
0.000167096
0.000192717
0.000260153
0.000449404
0.00101511
0.00271033
0.00486715
0.00251891
0.000644005
0.000715377
0.000638015
0.000538618
0.000462948
0.000394757
0.00033356
0.000282338
0.000242532
0.000215823
0.000197459
0.000197494
0.000205855
0.000233997
0.000306885
0.000506032
0.0010638
0.00277536
0.00484631
0.00246939
0.000545559
0.000705871
0.000673822
0.000590871
0.000511543
0.000443308
0.000382586
0.000331868
0.000291774
0.000265137
0.0002462
0.000247127
0.000258207
0.000293481
0.000381784
0.000614038
0.00119779
0.00291148
0.00458365
0.0023861
0.000438456
0.000660051
0.000688963
0.000659969
0.00059818
0.000531097
0.000467254
0.000412107
0.00036854
0.000338417
0.000321665
0.000325748
0.000345487
0.00040142
0.000531745
0.00085578
0.0015234
0.00319621
0.00414431
0.00224206
0.000292353
0.000582296
0.000764661
0.000816592
0.000797349
0.000741096
0.000668748
0.000603261
0.000554702
0.000520797
0.000522343
0.000543869
0.000601013
0.000733356
0.00100491
0.00163362
0.00245427
0.00374464
0.00384243
0.00205249
0.000303761
0.000584371
0.000993404
0.00117825
0.00123893
0.00123323
0.00120878
0.0011951
0.00120986
0.00125925
0.00136555
0.0015682
0.00185267
0.00231428
0.00291204
0.00383039
0.00453123
0.00437829
0.00379245
0.00178355
0.000219269
0.000340642
0.000622546
0.000902702
0.00110987
0.00124177
0.00131438
0.00135918
0.00138083
0.00139475
0.00140043
0.00141159
0.00142249
0.0014468
0.00146606
0.00151763
0.00158466
0.00165917
0.0016411
0.00146472
)
;

boundaryField
{
    movingWall
    {
        Cmu             0.09;
        kappa           0.41;
        E               9.8;
        type            epsilonWallFunction;
        value           nonuniform List<scalar> 
20
(
0.000219269
0.000340642
0.000622546
0.000902702
0.00110987
0.00124177
0.00131438
0.00135918
0.00138083
0.00139475
0.00140043
0.00141159
0.00142249
0.0014468
0.00146606
0.00151763
0.00158466
0.00165917
0.0016411
0.00146472
)
;
    }
    fixedWalls
    {
        Cmu             0.09;
        kappa           0.41;
        E               9.8;
        type            epsilonWallFunction;
        value           nonuniform List<scalar> 
60
(
2.34956e-05
0.000104979
0.000335475
0.00074104
0.00105549
0.00121854
0.00124493
0.00122615
0.00117909
0.00108845
0.000993904
0.000910958
0.000821738
0.000738067
0.000644005
0.000545559
0.000438456
0.000292353
0.000303761
0.000219269
0.000631928
0.00127389
0.00162834
0.00185913
0.0020318
0.00217184
0.00228058
0.00237022
0.00243325
0.00248256
0.00250696
0.00251839
0.00252126
0.00251891
0.00246939
0.0023861
0.00224206
0.00205249
0.00178355
0.00146472
2.34956e-05
8.43622e-05
0.000328515
0.000649973
0.00085979
0.0010218
0.00115368
0.00127985
0.00139079
0.00150422
0.0016106
0.00172293
0.00183602
0.00190921
0.0019423
0.00194404
0.00179652
0.0014178
0.000876546
0.000631928
)
;
    }
    frontAndBack
    {
        type            empty;
    }
}


// ************************************************************************* //
