/*--------------------------------*- C++ -*----------------------------------*\
| =========                 |                                                 |
| \\      /  F ield         | OpenFOAM: The Open Source CFD Toolbox           |
|  \\    /   O peration     | Version:  5.0                                   |
|   \\  /    A nd           | Web:      www.OpenFOAM.org                      |
|    \\/     M anipulation  |                                                 |
\*---------------------------------------------------------------------------*/
FoamFile
{
    version     2.0;
    format      ascii;
    class       volScalarField;
    location    "9";
    object      k;
}
// * * * * * * * * * * * * * * * * * * * * * * * * * * * * * * * * * * * * * //

dimensions      [0 2 -2 0 0 0 0];

internalField   nonuniform List<scalar> 
400
(
7.34843e-06
2.63852e-05
0.000102712
0.00020317
0.000268732
0.000319358
0.00036057
0.000399995
0.000434662
0.00047011
0.000503353
0.000538456
0.0005738
0.00059667
0.000607009
0.000607554
0.000561445
0.000443086
0.000273935
0.000197487
3.2829e-05
0.000115831
0.000247917
0.000406716
0.00047591
0.000551074
0.000596772
0.000661629
0.000714775
0.000777485
0.00083697
0.000899255
0.000954654
0.00101528
0.00106862
0.00109568
0.00110169
0.000989048
0.000656119
0.000398104
0.000104891
0.000357841
0.000523559
0.000605487
0.000660996
0.000708394
0.000747444
0.00079665
0.000841267
0.000889278
0.000933511
0.000976363
0.00101796
0.00106473
0.00111047
0.00114394
0.00115656
0.00110967
0.000804813
0.000508876
0.000231669
0.000570556
0.000657401
0.000694026
0.000720782
0.000743424
0.000771091
0.000803244
0.000833772
0.000862101
0.000885722
0.000914537
0.000955036
0.00100872
0.00107783
0.00114643
0.00117716
0.00117811
0.00094584
0.000581009
0.000329947
0.000686177
0.000710767
0.000710733
0.000719833
0.000735532
0.00075068
0.000757277
0.000754569
0.000747523
0.000746484
0.000765864
0.000808503
0.000879204
0.000985135
0.00112079
0.00121682
0.00124161
0.0010684
0.000634976
0.000380892
0.000715702
0.000714957
0.000706462
0.000706798
0.000705479
0.000687655
0.00065377
0.000619395
0.000596647
0.000588021
0.000594735
0.00063741
0.000717383
0.000848919
0.00103751
0.00123511
0.00131536
0.00120381
0.000678749
0.000389139
0.000707867
0.000707803
0.000691354
0.000675331
0.000647787
0.000603847
0.000549749
0.000501154
0.000468752
0.000455203
0.000454451
0.000491159
0.000568946
0.000707627
0.000929054
0.00123029
0.00138823
0.00133041
0.000712738
0.000383269
0.000687903
0.000689639
0.000663821
0.000637033
0.000593724
0.000534125
0.000470089
0.000416179
0.000380445
0.00036461
0.00036212
0.000390196
0.000457693
0.000585865
0.000812393
0.00116426
0.00145097
0.00146732
0.000740764
0.00036856
0.000649576
0.000659228
0.000635204
0.000603222
0.000551619
0.000484963
0.000418105
0.000364269
0.000329325
0.000313795
0.000311435
0.000332875
0.000387073
0.00049928
0.000713517
0.00108479
0.00149577
0.00158664
0.000760468
0.000340232
0.000617013
0.000630525
0.000610286
0.000577352
0.000523093
0.00045553
0.000389838
0.0003386
0.000305472
0.000290365
0.000289223
0.000306746
0.000351518
0.000446013
0.000642589
0.00101364
0.00151715
0.00170873
0.000775892
0.000310683
0.000574131
0.00059895
0.000586761
0.000556724
0.000505817
0.000441403
0.00038099
0.000333242
0.000301169
0.000284479
0.000283633
0.000298316
0.000337095
0.000420477
0.000598626
0.00095889
0.00152627
0.0018099
0.000783523
0.000284758
0.000538379
0.000574955
0.000569275
0.000544745
0.000497034
0.000441191
0.000384391
0.000338646
0.000307521
0.000290822
0.000289982
0.000300865
0.000334551
0.000412085
0.000578464
0.000919639
0.00153044
0.00189308
0.000787101
0.000256874
0.000491743
0.000546835
0.000549222
0.000534399
0.000497279
0.000445801
0.000394829
0.000353109
0.000323962
0.000307465
0.00030759
0.000317561
0.000348198
0.00041827
0.000573617
0.000901094
0.00153504
0.00193276
0.000788003
0.000230722
0.000461766
0.000531502
0.000538117
0.000528624
0.000500883
0.00045713
0.000413878
0.000377037
0.000350437
0.000334351
0.000335001
0.000345105
0.00037531
0.000443454
0.000591368
0.000896529
0.00153717
0.00194456
0.000787279
0.000201325
0.000413809
0.000506053
0.000529625
0.000527455
0.000510243
0.000474863
0.000438208
0.000406652
0.000383627
0.000369343
0.000370724
0.000381556
0.000412452
0.000480636
0.000628771
0.000912546
0.00153831
0.00190877
0.000771797
0.000170555
0.000384863
0.000493372
0.000532656
0.000535531
0.000527078
0.000504295
0.000473408
0.00044541
0.000424418
0.000410911
0.000412845
0.000424708
0.000457736
0.000529219
0.000688335
0.000953456
0.00154422
0.00181747
0.000745768
0.000137084
0.000323567
0.000459595
0.000538149
0.000559057
0.000556407
0.000543382
0.000517005
0.000491275
0.000470771
0.000459954
0.000463768
0.000479653
0.00052041
0.000603483
0.000792383
0.00104768
0.00156399
0.00165579
0.000700744
9.14082e-05
0.000275599
0.00046923
0.000574376
0.000635042
0.000637522
0.000629361
0.000607367
0.000583136
0.000562703
0.000562503
0.000573107
0.000603002
0.000672286
0.000791795
0.0010536
0.00132777
0.00161114
0.00147608
0.000641499
9.49578e-05
0.0002919
0.000516808
0.00064683
0.000721014
0.000751716
0.000766909
0.000782258
0.000800569
0.000829872
0.000880194
0.000959726
0.00106859
0.00123254
0.00142816
0.00171718
0.00182524
0.00170914
0.00135903
0.000557446
6.85456e-05
0.000106482
0.000194596
0.000282175
0.000346927
0.000388151
0.00041085
0.000424849
0.000431617
0.000435965
0.000437739
0.000441224
0.000444629
0.00045222
0.000458234
0.000474344
0.00049529
0.000518573
0.000512923
0.000457795
)
;

boundaryField
{
    movingWall
    {
        type            kqRWallFunction;
        value           nonuniform List<scalar> 
20
(
6.85456e-05
0.000106482
0.000194596
0.000282175
0.000346927
0.000388151
0.00041085
0.000424849
0.000431617
0.000435965
0.000437739
0.000441224
0.000444629
0.00045222
0.000458234
0.000474344
0.00049529
0.000518573
0.000512923
0.000457795
)
;
    }
    fixedWalls
    {
        type            kqRWallFunction;
        value           nonuniform List<scalar> 
60
(
7.34843e-06
3.2829e-05
0.000104891
0.000231669
0.000329947
0.000380892
0.000389139
0.000383269
0.00036856
0.000340232
0.000310683
0.000284758
0.000256874
0.000230722
0.000201325
0.000170555
0.000137084
9.14082e-05
9.49578e-05
6.85456e-05
0.000197487
0.000398104
0.000508876
0.000581009
0.000634976
0.000678749
0.000712738
0.000740764
0.000760468
0.000775892
0.000783523
0.000787101
0.000788003
0.000787279
0.000771797
0.000745768
0.000700744
0.000641499
0.000557446
0.000457795
7.34843e-06
2.63852e-05
0.000102712
0.00020317
0.000268732
0.000319358
0.00036057
0.000399995
0.000434662
0.00047011
0.000503353
0.000538456
0.0005738
0.00059667
0.000607009
0.000607554
0.000561445
0.000443086
0.000273935
0.000197487
)
;
    }
    frontAndBack
    {
        type            empty;
    }
}


// ************************************************************************* //
