/*--------------------------------*- C++ -*----------------------------------*\
| =========                 |                                                 |
| \\      /  F ield         | OpenFOAM: The Open Source CFD Toolbox           |
|  \\    /   O peration     | Version:  5.0                                   |
|   \\  /    A nd           | Web:      www.OpenFOAM.org                      |
|    \\/     M anipulation  |                                                 |
\*---------------------------------------------------------------------------*/
FoamFile
{
    version     2.0;
    format      ascii;
    class       volScalarField;
    location    "9";
    object      nut;
}
// * * * * * * * * * * * * * * * * * * * * * * * * * * * * * * * * * * * * * //

dimensions      [0 2 -1 0 0 0 0];

internalField   nonuniform List<scalar> 
400
(
2.06845e-07
7.42703e-07
2.89021e-06
5.71567e-06
7.55944e-06
8.98322e-06
1.01422e-05
1.1251e-05
1.2226e-05
1.3223e-05
1.4158e-05
1.51453e-05
1.61393e-05
1.67825e-05
1.70733e-05
1.70886e-05
1.57915e-05
1.24625e-05
7.70485e-06
5.5546e-06
9.23966e-07
4.00401e-06
7.19116e-06
1.43628e-05
1.85535e-05
2.43797e-05
2.84025e-05
3.37153e-05
3.77392e-05
4.16486e-05
4.45088e-05
4.66514e-05
4.74006e-05
4.80243e-05
4.77339e-05
4.55924e-05
4.42099e-05
3.55487e-05
1.98845e-05
1.11971e-05
2.95163e-06
1.31872e-05
2.26601e-05
2.96199e-05
3.62219e-05
4.22951e-05
4.75183e-05
5.22979e-05
5.52944e-05
5.79445e-05
5.95588e-05
6.05748e-05
6.07404e-05
6.06151e-05
5.94487e-05
5.63416e-05
5.26831e-05
4.69083e-05
2.68083e-05
1.43127e-05
6.51833e-06
2.53996e-05
3.33968e-05
4.01859e-05
4.63056e-05
5.13799e-05
5.58306e-05
5.96775e-05
6.2655e-05
6.5194e-05
6.63281e-05
6.68804e-05
6.71772e-05
6.70979e-05
6.63682e-05
6.35567e-05
5.72596e-05
5.37485e-05
3.53255e-05
1.63418e-05
9.28273e-06
3.2591e-05
4.0012e-05
4.59937e-05
5.25768e-05
5.8302e-05
6.31781e-05
6.63504e-05
6.77877e-05
6.7412e-05
6.72783e-05
6.73497e-05
6.7907e-05
6.85588e-05
6.93922e-05
6.95068e-05
6.30325e-05
5.75874e-05
4.19382e-05
1.78598e-05
1.07154e-05
3.56937e-05
4.33357e-05
5.13597e-05
5.84015e-05
6.38759e-05
6.65396e-05
6.64307e-05
6.59535e-05
6.55742e-05
6.54913e-05
6.55471e-05
6.58718e-05
6.68358e-05
6.86954e-05
7.10072e-05
6.87412e-05
6.09736e-05
4.83558e-05
1.90912e-05
1.09473e-05
3.63028e-05
4.70146e-05
5.55085e-05
6.14932e-05
6.47677e-05
6.56327e-05
6.48275e-05
6.4441e-05
6.45416e-05
6.49005e-05
6.51584e-05
6.50612e-05
6.52516e-05
6.69933e-05
7.06834e-05
7.44725e-05
6.45059e-05
5.34295e-05
2.00474e-05
1.07822e-05
3.7319e-05
4.94294e-05
5.72099e-05
6.23839e-05
6.4568e-05
6.45731e-05
6.38672e-05
6.41913e-05
6.51178e-05
6.60765e-05
6.65119e-05
6.60824e-05
6.56632e-05
6.57274e-05
6.90198e-05
7.53932e-05
6.87334e-05
5.81799e-05
2.08359e-05
1.03684e-05
3.68763e-05
4.97856e-05
5.76766e-05
6.24192e-05
6.41081e-05
6.38908e-05
6.36568e-05
6.48939e-05
6.65515e-05
6.7829e-05
6.8196e-05
6.73312e-05
6.63045e-05
6.5992e-05
6.72512e-05
7.28482e-05
7.25843e-05
6.16434e-05
2.13904e-05
9.57158e-06
3.66382e-05
4.96182e-05
5.75833e-05
6.21916e-05
6.3656e-05
6.3587e-05
6.38402e-05
6.55417e-05
6.7498e-05
6.87478e-05
6.88828e-05
6.82124e-05
6.73955e-05
6.68077e-05
6.77871e-05
7.18772e-05
7.48953e-05
6.49923e-05
2.18245e-05
8.74041e-06
3.47262e-05
4.81961e-05
5.65775e-05
6.12737e-05
6.31975e-05
6.32098e-05
6.34173e-05
6.46917e-05
6.65012e-05
6.80345e-05
6.83918e-05
6.81112e-05
6.75654e-05
6.75143e-05
6.81514e-05
7.16623e-05
7.68267e-05
6.74425e-05
2.20394e-05
8.01118e-06
3.25096e-05
4.68536e-05
5.55548e-05
6.08544e-05
6.22696e-05
6.28337e-05
6.30523e-05
6.39727e-05
6.53122e-05
6.63818e-05
6.65579e-05
6.66934e-05
6.72333e-05
6.76831e-05
6.85788e-05
7.1451e-05
7.78426e-05
6.92249e-05
2.21402e-05
7.22685e-06
2.85869e-05
4.37783e-05
5.28432e-05
5.89004e-05
6.17802e-05
6.23237e-05
6.24256e-05
6.28256e-05
6.35081e-05
6.42985e-05
6.46852e-05
6.51219e-05
6.62367e-05
6.78579e-05
6.89744e-05
7.1293e-05
7.85475e-05
6.99115e-05
2.21656e-05
6.49122e-06
2.58872e-05
4.08676e-05
5.01792e-05
5.67748e-05
6.08184e-05
6.15934e-05
6.17468e-05
6.18575e-05
6.20735e-05
6.27895e-05
6.33375e-05
6.41474e-05
6.57816e-05
6.80317e-05
7.00359e-05
7.1262e-05
7.84634e-05
6.99212e-05
2.21456e-05
5.66435e-06
2.1543e-05
3.61246e-05
4.68703e-05
5.40855e-05
5.93563e-05
6.08423e-05
6.12117e-05
6.13647e-05
6.13708e-05
6.21766e-05
6.26311e-05
6.36499e-05
6.54302e-05
6.77486e-05
7.03153e-05
7.04519e-05
7.67383e-05
6.76608e-05
2.17099e-05
4.79875e-06
1.88855e-05
3.25122e-05
4.32159e-05
5.0458e-05
5.6401e-05
5.98249e-05
6.07783e-05
6.11949e-05
6.11448e-05
6.17236e-05
6.20721e-05
6.28716e-05
6.42527e-05
6.60232e-05
6.94459e-05
6.83064e-05
7.37135e-05
6.4858e-05
2.09779e-05
3.85738e-06
1.42756e-05
2.75929e-05
3.94934e-05
4.70243e-05
5.2463e-05
5.68722e-05
5.83744e-05
5.89396e-05
5.894e-05
5.91925e-05
5.94241e-05
5.99329e-05
6.07204e-05
6.16411e-05
6.60314e-05
6.48464e-05
6.88774e-05
5.95387e-05
1.97113e-05
2.57221e-06
1.17396e-05
2.59147e-05
3.63605e-05
4.55196e-05
4.93581e-05
5.33065e-05
5.50352e-05
5.51725e-05
5.47182e-05
5.45176e-05
5.43525e-05
5.44499e-05
5.54672e-05
5.6149e-05
6.11561e-05
6.46499e-05
6.2388e-05
5.10339e-05
1.80449e-05
2.6716e-06
1.31227e-05
2.41977e-05
3.19583e-05
3.77644e-05
4.12389e-05
4.37906e-05
4.60829e-05
4.76765e-05
4.92211e-05
5.10613e-05
5.2861e-05
5.54713e-05
5.90784e-05
6.30371e-05
6.92839e-05
6.61711e-05
6.00472e-05
4.38312e-05
1.56806e-05
1.92852e-06
2.99571e-06
5.47443e-06
7.93842e-06
9.75987e-06
1.09195e-05
1.15581e-05
1.19519e-05
1.21423e-05
1.22645e-05
1.23144e-05
1.24123e-05
1.2508e-05
1.27213e-05
1.28904e-05
1.33433e-05
1.39324e-05
1.45872e-05
1.44282e-05
1.28774e-05
)
;

boundaryField
{
    movingWall
    {
        type            nutkWallFunction;
        Cmu             0.09;
        kappa           0.41;
        E               9.8;
        value           uniform 0;
    }
    fixedWalls
    {
        type            nutkWallFunction;
        Cmu             0.09;
        kappa           0.41;
        E               9.8;
        value           uniform 0;
    }
    frontAndBack
    {
        type            empty;
    }
}


// ************************************************************************* //
