/*--------------------------------*- C++ -*----------------------------------*\
| =========                 |                                                 |
| \\      /  F ield         | OpenFOAM: The Open Source CFD Toolbox           |
|  \\    /   O peration     | Version:  5.0                                   |
|   \\  /    A nd           | Web:      www.OpenFOAM.org                      |
|    \\/     M anipulation  |                                                 |
\*---------------------------------------------------------------------------*/
FoamFile
{
    version     2.0;
    format      ascii;
    class       volScalarField;
    location    "9";
    object      p;
}
// * * * * * * * * * * * * * * * * * * * * * * * * * * * * * * * * * * * * * //

dimensions      [0 2 -2 0 0 0 0];

internalField   nonuniform List<scalar> 
400
(
3.56547e-08
-9.00536e-05
-0.000154123
-0.00042132
-0.00132425
-0.00282441
-0.00455965
-0.00620877
-0.00753394
-0.0084104
-0.00873038
-0.0084043
-0.00742071
-0.00576089
-0.00342711
-0.000555875
0.00254638
0.00528415
0.00698507
0.0073532
9.08983e-05
-1.67397e-05
-0.000258367
-0.000912245
-0.00208308
-0.00366689
-0.0053743
-0.00695519
-0.00823654
-0.00909726
-0.00944038
-0.00921863
-0.00838433
-0.00688904
-0.00475287
-0.00205204
0.000964271
0.00381363
0.00584421
0.00665826
0.000251033
-0.00010274
-0.000763996
-0.00186381
-0.00336498
-0.00506823
-0.00676004
-0.00828039
-0.00950892
-0.010315
-0.0106359
-0.0104418
-0.00971126
-0.00843102
-0.0065966
-0.00424951
-0.00153324
0.00124759
0.0035784
0.00475687
-2.76709e-05
-0.000619328
-0.00171242
-0.00323563
-0.00499827
-0.00679312
-0.0084564
-0.00987261
-0.010949
-0.0116368
-0.0119094
-0.0117475
-0.0111307
-0.0100527
-0.00851346
-0.00653923
-0.00420738
-0.00169239
0.000632364
0.00188091
-0.000902821
-0.00169522
-0.003087
-0.00484136
-0.00670576
-0.00848628
-0.010054
-0.011333
-0.0122776
-0.0128699
-0.0130996
-0.0129587
-0.0124409
-0.0115459
-0.010277
-0.00865275
-0.00671719
-0.00456464
-0.00245507
-0.00127301
-0.00233011
-0.00320476
-0.00469033
-0.00647689
-0.00830599
-0.00999284
-0.0114336
-0.0125802
-0.0134132
-0.0139271
-0.0141208
-0.0139964
-0.0135579
-0.0128121
-0.011768
-0.0104414
-0.0088624
-0.00708901
-0.00537445
-0.00425609
-0.00396971
-0.00484489
-0.00627328
-0.0079753
-0.00969286
-0.0112501
-0.0125599
-0.0135888
-0.0143292
-0.0147821
-0.0149518
-0.0148445
-0.0144688
-0.0138376
-0.0129661
-0.0118723
-0.010585
-0.00914845
-0.00781047
-0.00681437
-0.00548937
-0.00631519
-0.00762904
-0.00920987
-0.0107955
-0.0122236
-0.0134178
-0.0143517
-0.015022
-0.0154325
-0.0155888
-0.0154981
-0.0151704
-0.0146219
-0.0138745
-0.0129518
-0.0118873
-0.0107194
-0.00969208
-0.0088098
-0.00666646
-0.00743837
-0.00863121
-0.0100994
-0.0115689
-0.0128929
-0.0140011
-0.0148689
-0.0154931
-0.0158776
-0.0160278
-0.0159501
-0.0156546
-0.015159
-0.0144911
-0.0136824
-0.0127802
-0.0117976
-0.0109946
-0.0102147
-0.00741907
-0.00810644
-0.0092095
-0.0106007
-0.0119883
-0.0132472
-0.0143065
-0.0151395
-0.015741
-0.0161136
-0.0162619
-0.0161912
-0.0159116
-0.0154414
-0.0148131
-0.0140638
-0.0132738
-0.0123827
-0.011767
-0.0110124
-0.00770408
-0.00831016
-0.00935837
-0.0107001
-0.012047
-0.0132824
-0.014331
-0.0151602
-0.0157613
-0.0161348
-0.0162841
-0.0162139
-0.0159339
-0.0154627
-0.0148374
-0.0140932
-0.0133788
-0.012468
-0.0120465
-0.0112016
-0.00751213
-0.00807386
-0.00908602
-0.0104055
-0.0117507
-0.012999
-0.014071
-0.0149261
-0.0155489
-0.0159364
-0.0160902
-0.0160139
-0.0157175
-0.0152203
-0.0145633
-0.0138007
-0.0130574
-0.0121008
-0.0118761
-0.0107685
-0.00692104
-0.00746527
-0.00845198
-0.00974767
-0.011115
-0.012404
-0.0135285
-0.0144363
-0.0151026
-0.0155181
-0.0156815
-0.0155942
-0.015267
-0.0147207
-0.0140026
-0.0131733
-0.0123477
-0.0113527
-0.0112091
-0.00974244
-0.00606021
-0.00657308
-0.00751886
-0.00877348
-0.0101591
-0.0115055
-0.0127071
-0.0136938
-0.0144263
-0.0148862
-0.015067
-0.0149675
-0.0145985
-0.0139831
-0.0131756
-0.0122372
-0.0112979
-0.0102331
-0.0100402
-0.00820172
-0.00510143
-0.00553977
-0.00638075
-0.00755242
-0.00893007
-0.0103368
-0.0116331
-0.0127214
-0.0135423
-0.0140643
-0.0142743
-0.014167
-0.0137515
-0.0130523
-0.0121317
-0.0110478
-0.0099556
-0.00874505
-0.00840061
-0.00617908
-0.00424005
-0.00449605
-0.00511488
-0.0061359
-0.00747597
-0.00894003
-0.0103443
-0.0115547
-0.0124871
-0.0130926
-0.0133499
-0.0132497
-0.012798
-0.0120137
-0.0109648
-0.00969858
-0.00838954
-0.00691726
-0.00627798
-0.00346984
-0.00366109
-0.00357644
-0.00384337
-0.00464478
-0.00591762
-0.00742896
-0.0089453
-0.0102914
-0.011355
-0.0120662
-0.012393
-0.0123192
-0.011858
-0.0110018
-0.00981715
-0.00832278
-0.00668571
-0.00475503
-0.00345324
0.000740628
-0.00338079
-0.002777
-0.00262009
-0.00317943
-0.00437208
-0.00591547
-0.00753593
-0.00902509
-0.0102387
-0.0110808
-0.0115057
-0.0114868
-0.0110365
-0.0101429
-0.0088344
-0.00706502
-0.00494522
-0.00217912
0.000661056
0.00823794
-0.00333036
-0.00211897
-0.00166005
-0.00203402
-0.00314932
-0.00471273
-0.00642184
-0.00803839
-0.00938849
-0.0103615
-0.010896
-0.0109626
-0.0105449
-0.0096214
-0.00817594
-0.00610695
-0.00332963
0.00102684
0.00722049
0.0202752
-0.00384053
-0.000737985
-0.000161929
-0.00071159
-0.00187392
-0.00349239
-0.00531561
-0.00706698
-0.00854998
-0.0096384
-0.010266
-0.0103941
-0.00999977
-0.00905652
-0.00752161
-0.00522883
-0.00132352
0.00564633
0.0176835
0.0356451
)
;

boundaryField
{
    movingWall
    {
        type            zeroGradient;
    }
    fixedWalls
    {
        type            zeroGradient;
    }
    frontAndBack
    {
        type            empty;
    }
}


// ************************************************************************* //
