/*--------------------------------*- C++ -*----------------------------------*\
| =========                 |                                                 |
| \\      /  F ield         | OpenFOAM: The Open Source CFD Toolbox           |
|  \\    /   O peration     | Version:  5.0                                   |
|   \\  /    A nd           | Web:      www.OpenFOAM.org                      |
|    \\/     M anipulation  |                                                 |
\*---------------------------------------------------------------------------*/
FoamFile
{
    version     2.0;
    format      ascii;
    class       surfaceScalarField;
    location    "9";
    object      phi;
}
// * * * * * * * * * * * * * * * * * * * * * * * * * * * * * * * * * * * * * //

dimensions      [0 3 -1 0 0 0 0];

internalField   nonuniform List<scalar> 
760
(
1.1788e-07
-1.17884e-07
-1.67175e-07
2.85055e-07
-1.01931e-06
8.52131e-07
-2.34192e-06
1.32261e-06
-3.73744e-06
1.39552e-06
-4.98111e-06
1.24367e-06
-6.03173e-06
1.05062e-06
-6.86471e-06
8.32976e-07
-7.47436e-06
6.09656e-07
-7.87853e-06
4.04167e-07
-8.08986e-06
2.11328e-07
-8.09789e-06
8.03663e-09
-7.8986e-06
-1.99293e-07
-7.49081e-06
-4.07792e-07
-6.80679e-06
-6.84019e-07
-5.82232e-06
-9.8447e-07
-4.48176e-06
-1.34056e-06
-2.82889e-06
-1.65286e-06
-1.0857e-06
-1.7432e-06
-1.0857e-06
-4.16795e-07
2.98912e-07
-1.42956e-06
1.29782e-06
-2.79347e-06
2.21603e-06
-4.039e-06
2.56815e-06
-5.11096e-06
2.46748e-06
-6.05072e-06
2.18343e-06
-6.81795e-06
1.81784e-06
-7.41878e-06
1.43381e-06
-7.86881e-06
1.05968e-06
-8.16085e-06
6.96212e-07
-8.28021e-06
3.30683e-07
-8.2262e-06
-4.59703e-08
-8.01556e-06
-4.09931e-07
-7.60821e-06
-8.15139e-07
-7.00164e-06
-1.2906e-06
-6.14797e-06
-1.83814e-06
-5.01023e-06
-2.4783e-06
-3.52627e-06
-3.13682e-06
-1.73148e-06
-3.53799e-06
-2.81718e-06
-1.01192e-06
1.31084e-06
-2.33684e-06
2.62274e-06
-3.50506e-06
3.38426e-06
-4.47586e-06
3.53895e-06
-5.29656e-06
3.28819e-06
-5.97411e-06
2.86098e-06
-6.50604e-06
2.34977e-06
-6.88294e-06
1.81071e-06
-7.12482e-06
1.30157e-06
-7.23481e-06
8.06196e-07
-7.23535e-06
3.31227e-07
-7.1373e-06
-1.44026e-07
-6.92222e-06
-6.25012e-07
-6.57534e-06
-1.16202e-06
-6.08414e-06
-1.7818e-06
-5.41333e-06
-2.50895e-06
-4.53233e-06
-3.3593e-06
-3.37478e-06
-4.29437e-06
-1.86018e-06
-5.05258e-06
-4.67736e-06
-1.23586e-06
2.5467e-06
-2.44832e-06
3.83519e-06
-3.42715e-06
4.36309e-06
-4.19007e-06
4.30186e-06
-4.7914e-06
3.88952e-06
-5.24704e-06
3.31661e-06
-5.5727e-06
2.67543e-06
-5.79508e-06
2.03309e-06
-5.9224e-06
1.42889e-06
-5.96947e-06
8.53262e-07
-5.93778e-06
2.99536e-07
-5.82951e-06
-2.52294e-07
-5.63212e-06
-8.22397e-07
-5.34431e-06
-1.44983e-06
-4.95631e-06
-2.1698e-06
-4.44408e-06
-3.02118e-06
-3.77329e-06
-4.03008e-06
-2.88612e-06
-5.18154e-06
-1.6503e-06
-6.2884e-06
-6.32767e-06
-1.16446e-06
3.71116e-06
-2.18949e-06
4.86022e-06
-2.98342e-06
5.15701e-06
-3.5816e-06
4.90005e-06
-4.02293e-06
4.33086e-06
-4.3346e-06
3.62828e-06
-4.54603e-06
2.88686e-06
-4.68259e-06
2.16965e-06
-4.75098e-06
1.49728e-06
-4.75861e-06
8.60885e-07
-4.70629e-06
2.47216e-07
-4.59436e-06
-3.64216e-07
-4.41905e-06
-9.97713e-07
-4.18181e-06
-1.68707e-06
-3.8795e-06
-2.4721e-06
-3.49868e-06
-3.40201e-06
-3.00515e-06
-4.52362e-06
-2.33207e-06
-5.85462e-06
-1.37954e-06
-7.24093e-06
-7.70721e-06
-9.58011e-07
4.66917e-06
-1.77701e-06
5.67922e-06
-2.40518e-06
5.78518e-06
-2.86523e-06
5.36009e-06
-3.19122e-06
4.65685e-06
-3.41331e-06
3.85037e-06
-3.56047e-06
3.03402e-06
-3.65054e-06
2.25972e-06
-3.68998e-06
1.53673e-06
-3.68273e-06
8.53637e-07
-3.62915e-06
1.93631e-07
-3.5282e-06
-4.65162e-07
-3.37884e-06
-1.14708e-06
-3.18354e-06
-1.88236e-06
-2.94553e-06
-2.71011e-06
-2.6633e-06
-3.68424e-06
-2.32096e-06
-4.86595e-06
-1.85335e-06
-6.32223e-06
-1.1146e-06
-7.97968e-06
-8.8218e-06
-7.26182e-07
5.39535e-06
-1.33362e-06
6.28666e-06
-1.80264e-06
6.2542e-06
-2.14285e-06
5.7003e-06
-2.38235e-06
4.89635e-06
-2.54576e-06
4.01377e-06
-2.65477e-06
3.14304e-06
-2.72156e-06
2.32651e-06
-2.75163e-06
1.5668e-06
-2.74714e-06
8.4914e-07
-2.70671e-06
1.53202e-07
-2.62792e-06
-5.43946e-07
-2.50929e-06
-1.26571e-06
-2.35364e-06
-2.03801e-06
-2.16858e-06
-2.89517e-06
-1.96055e-06
-3.89228e-06
-1.72344e-06
-5.10307e-06
-1.40504e-06
-6.64063e-06
-9.11779e-07
-8.47294e-06
-9.73358e-06
-4.73366e-07
5.86872e-06
-8.96748e-07
6.71004e-06
-1.21954e-06
6.577e-06
-1.45624e-06
5.937e-06
-1.62613e-06
5.06623e-06
-1.74612e-06
4.13376e-06
-1.82991e-06
3.22683e-06
-1.88477e-06
2.38137e-06
-1.9143e-06
1.59633e-06
-1.91913e-06
8.53968e-07
-1.89696e-06
1.31034e-07
-1.84494e-06
-5.95963e-07
-1.76132e-06
-1.34934e-06
-1.6486e-06
-2.15073e-06
-1.51621e-06
-3.02756e-06
-1.3765e-06
-4.03198e-06
-1.22924e-06
-5.25033e-06
-1.03305e-06
-6.83683e-06
-7.04044e-07
-8.80195e-06
-1.04376e-05
-2.54063e-07
6.12278e-06
-4.89077e-07
6.94506e-06
-6.71284e-07
6.7592e-06
-8.14491e-07
6.08021e-06
-9.22597e-07
5.17434e-06
-1.00498e-06
4.21614e-06
-1.0676e-06
3.28945e-06
-1.11317e-06
2.42694e-06
-1.14307e-06
1.62623e-06
-1.15701e-06
8.67912e-07
-1.15308e-06
1.27107e-07
-1.12896e-06
-6.20081e-07
-1.08333e-06
-1.39497e-06
-1.01837e-06
-2.21569e-06
-9.43455e-07
-3.10248e-06
-8.72995e-07
-4.10244e-06
-8.11248e-07
-5.31207e-06
-7.26087e-07
-6.92199e-06
-5.57725e-07
-8.97031e-06
-1.09954e-05
-2.77802e-08
6.15056e-06
-1.03966e-07
7.02124e-06
-1.64001e-07
6.81924e-06
-2.14153e-07
6.13036e-06
-2.59883e-07
5.22007e-06
-3.03126e-07
4.25939e-06
-3.42909e-07
3.32924e-06
-3.77331e-07
2.46136e-06
-4.0536e-07
1.65425e-06
-4.26354e-07
8.88907e-07
-4.39482e-07
1.40235e-07
-4.43608e-07
-6.15956e-07
-4.38479e-07
-1.4001e-06
-4.25988e-07
-2.22818e-06
-4.14682e-07
-3.11378e-06
-4.1424e-07
-4.10288e-06
-4.49109e-07
-5.27721e-06
-4.66766e-07
-6.90433e-06
-4.166e-07
-9.02047e-06
-1.1412e-05
1.82828e-07
5.96774e-06
2.77717e-07
6.92635e-06
3.46215e-07
6.75074e-06
3.74679e-07
6.1019e-06
3.86297e-07
5.20845e-06
3.82483e-07
4.2632e-06
3.68337e-07
3.34338e-06
3.4836e-07
2.48134e-06
3.24999e-07
1.67762e-06
2.98888e-07
9.15018e-07
2.69651e-07
1.69471e-07
2.3689e-07
-5.83195e-07
1.99588e-07
-1.3628e-06
1.55706e-07
-2.1843e-06
9.88318e-08
-3.05691e-06
1.59136e-09
-4.00564e-06
-1.03752e-07
-5.17186e-06
-2.42962e-07
-6.76512e-06
-3.18506e-07
-8.94493e-06
-1.17305e-05
3.82327e-07
5.58541e-06
6.37544e-07
6.67114e-06
8.27647e-07
6.56064e-06
9.47305e-07
5.98224e-06
1.02458e-06
5.13118e-06
1.06792e-06
4.21985e-06
1.08595e-06
3.32535e-06
1.08551e-06
2.48178e-06
1.07025e-06
1.69288e-06
1.04089e-06
9.4438e-07
9.95808e-07
2.14551e-07
9.33058e-07
-5.20445e-07
8.49763e-07
-1.2795e-06
7.43285e-07
-2.07782e-06
6.07063e-07
-2.92069e-06
4.38735e-07
-3.83731e-06
2.1322e-07
-4.94635e-06
-5.54074e-08
-6.49649e-06
-2.07717e-07
-8.79262e-06
-1.19382e-05
5.78044e-07
5.00737e-06
9.88455e-07
6.26073e-06
1.29746e-06
6.25163e-06
1.51399e-06
5.7657e-06
1.66453e-06
4.98064e-06
1.76462e-06
4.11976e-06
1.82398e-06
3.266e-06
1.85041e-06
2.45534e-06
1.84839e-06
1.6949e-06
1.81879e-06
9.73985e-07
1.75885e-06
2.74484e-07
1.66558e-06
-4.27175e-07
1.5343e-06
-1.14822e-06
1.36099e-06
-1.90451e-06
1.14184e-06
-2.70154e-06
8.7335e-07
-3.56882e-06
5.31537e-07
-4.60453e-06
1.67998e-07
-6.13295e-06
-7.36477e-08
-8.55097e-06
-1.20118e-05
7.46533e-07
4.26083e-06
1.30244e-06
5.70482e-06
1.72756e-06
5.82651e-06
2.05852e-06
5.43474e-06
2.30088e-06
4.73829e-06
2.4737e-06
3.94694e-06
2.5882e-06
3.1515e-06
2.65267e-06
2.39087e-06
2.67201e-06
1.67556e-06
2.64724e-06
9.98754e-07
2.57489e-06
3.46839e-07
2.45038e-06
-3.02669e-07
2.26875e-06
-9.66591e-07
2.02428e-06
-1.66004e-06
1.71314e-06
-2.3904e-06
1.3358e-06
-3.19148e-06
8.79867e-07
-4.1486e-06
4.18056e-07
-5.67114e-06
7.73927e-08
-8.21031e-06
-1.19344e-05
8.90365e-07
3.37047e-06
1.5716e-06
5.02359e-06
2.11898e-06
5.27913e-06
2.57484e-06
4.97888e-06
2.92738e-06
4.38575e-06
3.1901e-06
3.68422e-06
3.3752e-06
2.9664e-06
3.49102e-06
2.27505e-06
3.54209e-06
1.62449e-06
3.52972e-06
1.01113e-06
3.44963e-06
4.26922e-07
3.29467e-06
-1.47701e-07
3.06195e-06
-7.33876e-07
2.74357e-06
-1.34166e-06
2.33438e-06
-1.98121e-06
1.84351e-06
-2.7006e-06
1.26391e-06
-3.56901e-06
6.85255e-07
-5.09248e-06
2.1993e-07
-7.74498e-06
-1.17145e-05
9.07272e-07
2.4632e-06
1.70155e-06
4.22931e-06
2.39742e-06
4.58327e-06
3.00134e-06
4.37496e-06
3.49446e-06
3.89263e-06
3.87593e-06
3.30276e-06
4.15511e-06
2.68721e-06
4.34123e-06
2.08893e-06
4.43862e-06
1.5271e-06
4.44941e-06
1.00034e-06
4.3708e-06
5.05533e-07
4.19305e-06
3.00475e-08
3.91316e-06
-4.53989e-07
3.52494e-06
-9.53444e-07
3.02012e-06
-1.47639e-06
2.41803e-06
-2.09852e-06
1.71069e-06
-2.86166e-06
1.0091e-06
-4.39089e-06
4.18049e-07
-7.15394e-06
-1.12965e-05
8.22728e-07
1.64047e-06
1.6956e-06
3.35643e-06
2.55481e-06
3.72406e-06
3.32405e-06
3.60573e-06
3.97464e-06
3.24204e-06
4.49781e-06
2.77958e-06
4.89224e-06
2.29278e-06
5.16571e-06
1.81546e-06
5.32314e-06
1.36967e-06
5.36814e-06
9.55345e-07
5.30012e-06
5.7355e-07
5.12115e-06
2.09022e-07
4.81058e-06
-1.43424e-07
4.37874e-06
-5.21606e-07
3.80612e-06
-9.0376e-07
3.11735e-06
-1.40974e-06
2.30546e-06
-2.04978e-06
1.47899e-06
-3.56442e-06
6.95337e-07
-6.37028e-06
-1.06011e-05
3.35825e-07
1.30464e-06
1.34063e-06
2.35162e-06
2.39158e-06
2.67311e-06
3.36905e-06
2.62826e-06
4.21212e-06
2.39897e-06
4.90544e-06
2.08626e-06
5.44618e-06
1.75204e-06
5.83714e-06
1.4245e-06
6.08674e-06
1.12008e-06
6.20203e-06
8.40051e-07
6.18716e-06
5.88421e-07
6.05099e-06
3.45189e-07
5.78824e-06
1.19332e-07
5.39254e-06
-1.25908e-07
4.83845e-06
-3.49675e-07
4.15202e-06
-7.23308e-07
3.30593e-06
-1.2037e-06
2.38962e-06
-2.64811e-06
1.22957e-06
-5.21023e-06
-9.37155e-06
-5.14925e-07
1.81957e-06
5.92647e-07
1.24405e-06
1.95908e-06
1.30668e-06
3.21617e-06
1.37117e-06
4.30379e-06
1.31135e-06
5.21784e-06
1.17221e-06
5.96132e-06
1.00856e-06
6.53077e-06
8.55045e-07
6.94336e-06
7.07486e-07
7.20665e-06
5.7676e-07
7.34131e-06
4.53764e-07
7.34359e-06
3.42905e-07
7.22615e-06
2.36777e-07
6.97496e-06
1.25285e-07
6.60841e-06
1.68702e-08
6.11338e-06
-2.28275e-07
5.43653e-06
-5.26851e-07
4.50072e-06
-1.71229e-06
2.65194e-06
-3.36145e-06
-6.71961e-06
1.81957e-06
3.06362e-06
4.3703e-06
5.74147e-06
7.05281e-06
8.22503e-06
9.23358e-06
1.00886e-05
1.07961e-05
1.13729e-05
1.18266e-05
1.21695e-05
1.24063e-05
1.25316e-05
1.25485e-05
1.23202e-05
1.17934e-05
1.00811e-05
6.71961e-06
)
;

boundaryField
{
    movingWall
    {
        type            calculated;
        value           uniform 0;
    }
    fixedWalls
    {
        type            calculated;
        value           uniform 0;
    }
    frontAndBack
    {
        type            empty;
        value           nonuniform 0();
    }
}


// ************************************************************************* //
