/*--------------------------------*- C++ -*----------------------------------*\
| =========                 |                                                 |
| \\      /  F ield         | OpenFOAM: The Open Source CFD Toolbox           |
|  \\    /   O peration     | Version:  5.0                                   |
|   \\  /    A nd           | Web:      www.OpenFOAM.org                      |
|    \\/     M anipulation  |                                                 |
\*---------------------------------------------------------------------------*/
FoamFile
{
    version     2.0;
    format      ascii;
    class       volVectorField;
    location    "9";
    object      U;
}
// * * * * * * * * * * * * * * * * * * * * * * * * * * * * * * * * * * * * * //

dimensions      [0 1 -1 0 0 0 0];

internalField   nonuniform List<vector> 
400
(
(0.00274389 -0.00317245 0)
(0.00148089 -0.000411899 0)
(-0.00734224 0.00419505 0)
(-0.0307372 0.0116619 0)
(-0.0637278 0.0142919 0)
(-0.089895 0.0123525 0)
(-0.113525 0.0105593 0)
(-0.131309 0.00820088 0)
(-0.145524 0.00622078 0)
(-0.155133 0.00398607 0)
(-0.160797 0.00219884 0)
(-0.162953 0.00029324 0)
(-0.161414 -0.00287649 0)
(-0.154474 -0.00498634 0)
(-0.143099 -0.00838659 0)
(-0.125277 -0.0113333 0)
(-0.101594 -0.0148093 0)
(-0.0715693 -0.0167996 0)
(-0.0383582 -0.0152445 0)
(-0.00931732 -0.004273 0)
(-0.00233902 -0.00135229 0)
(-0.0139694 0.0128822 0)
(-0.0408187 0.031885 0)
(-0.0693393 0.0406641 0)
(-0.0938561 0.0394277 0)
(-0.114004 0.0352009 0)
(-0.131019 0.0296189 0)
(-0.143595 0.0238172 0)
(-0.154342 0.017163 0)
(-0.161372 0.0112909 0)
(-0.165565 0.00549039 0)
(-0.166167 -0.000218924 0)
(-0.163391 -0.00652444 0)
(-0.157016 -0.0134814 0)
(-0.146557 -0.0218846 0)
(-0.131192 -0.0314325 0)
(-0.110661 -0.0423434 0)
(-0.0845974 -0.0521343 0)
(-0.052773 -0.0549386 0)
(-0.0195383 -0.0361636 0)
(-0.00855905 0.0149687 0)
(-0.0326166 0.0412768 0)
(-0.0592273 0.0573914 0)
(-0.0815682 0.0613638 0)
(-0.0996497 0.0574469 0)
(-0.114398 0.0500623 0)
(-0.126171 0.041072 0)
(-0.135111 0.0316648 0)
(-0.141214 0.0232306 0)
(-0.144281 0.0147449 0)
(-0.145368 0.00639524 0)
(-0.144243 -0.00212575 0)
(-0.141367 -0.0110071 0)
(-0.135566 -0.0207663 0)
(-0.127091 -0.0320742 0)
(-0.115067 -0.0453759 0)
(-0.099033 -0.0610125 0)
(-0.0784502 -0.0780716 0)
(-0.0516679 -0.0906136 0)
(-0.0221635 -0.0792537 0)
(-0.0125537 0.0391354 0)
(-0.0379813 0.0652718 0)
(-0.0608844 0.0776777 0)
(-0.0780932 0.0782697 0)
(-0.0914441 0.0717003 0)
(-0.101708 0.0617524 0)
(-0.109203 0.0502595 0)
(-0.114495 0.0385209 0)
(-0.117718 0.0272767 0)
(-0.119392 0.016459 0)
(-0.119543 0.00614068 0)
(-0.118133 -0.00420045 0)
(-0.115099 -0.0150098 0)
(-0.110189 -0.0269402 0)
(-0.103378 -0.0406467 0)
(-0.0942669 -0.056802 0)
(-0.0821433 -0.0757937 0)
(-0.0661041 -0.0970557 0)
(-0.0442075 -0.116252 0)
(-0.0200875 -0.114208 0)
(-0.0126157 0.0618615 0)
(-0.0356287 0.08654 0)
(-0.0539859 0.094805 0)
(-0.0674654 0.0918903 0)
(-0.077443 0.082304 0)
(-0.0845593 0.0696526 0)
(-0.0894509 0.0558327 0)
(-0.0927554 0.042191 0)
(-0.0946893 0.0293011 0)
(-0.0954316 0.0171076 0)
(-0.0949752 0.0054028 0)
(-0.0933271 -0.00628358 0)
(-0.0904488 -0.0184214 0)
(-0.0862881 -0.0317205 0)
(-0.0808425 -0.0469759 0)
(-0.0740033 -0.0651104 0)
(-0.0652364 -0.0869226 0)
(-0.0531533 -0.112441 0)
(-0.0357738 -0.138016 0)
(-0.0176553 -0.143598 0)
(-0.0106714 0.0827768 0)
(-0.0294695 0.104815 0)
(-0.0438302 0.10911 0)
(-0.0543353 0.102589 0)
(-0.0617099 0.0900148 0)
(-0.0667574 0.0749644 0)
(-0.0701561 0.059362 0)
(-0.0724149 0.0443964 0)
(-0.0736525 0.030384 0)
(-0.0739525 0.0171333 0)
(-0.07334 0.00434484 0)
(-0.0717921 -0.00840186 0)
(-0.0692801 -0.0215886 0)
(-0.0658019 -0.0358706 0)
(-0.0614166 -0.0520636 0)
(-0.0561751 -0.071215 0)
(-0.0499336 -0.0944689 0)
(-0.0412657 -0.12272 0)
(-0.0300255 -0.154072 0)
(-0.0119646 -0.167492 0)
(-0.00870831 0.100053 0)
(-0.0221427 0.119372 0)
(-0.0330471 0.120333 0)
(-0.0408275 0.110684 0)
(-0.0461541 0.0956628 0)
(-0.0498036 0.0787706 0)
(-0.0522908 0.0618777 0)
(-0.0539615 0.0459333 0)
(-0.054891 0.0310567 0)
(-0.055138 0.0169913 0)
(-0.054694 0.00337238 0)
(-0.0535017 -0.0102406 0)
(-0.0515127 -0.0243189 0)
(-0.0487353 -0.0394254 0)
(-0.0452706 -0.0563149 0)
(-0.041253 -0.0761033 0)
(-0.0368514 -0.100138 0)
(-0.0306132 -0.130354 0)
(-0.0241429 -0.165711 0)
(-0.00957412 -0.18711 0)
(-0.00577415 0.112719 0)
(-0.0147042 0.130205 0)
(-0.0225356 0.128602 0)
(-0.0278342 0.116606 0)
(-0.0315068 0.0998124 0)
(-0.0341013 0.0816134 0)
(-0.0359528 0.0637932 0)
(-0.0372695 0.0471282 0)
(-0.0380882 0.0316289 0)
(-0.0384341 0.0169731 0)
(-0.0382703 0.00272815 0)
(-0.0375263 -0.0115706 0)
(-0.0361443 -0.0263709 0)
(-0.0341365 -0.042141 0)
(-0.0316259 -0.0595062 0)
(-0.0287708 -0.0795662 0)
(-0.0260174 -0.103897 0)
(-0.0218217 -0.135292 0)
(-0.0194602 -0.173407 0)
(-0.00603489 -0.20263 0)
(-0.0035492 0.120574 0)
(-0.00782359 0.136963 0)
(-0.0125958 0.133773 0)
(-0.0156134 0.120487 0)
(-0.0178504 0.102629 0)
(-0.0195405 0.0836473 0)
(-0.0208505 0.0652519 0)
(-0.0218771 0.0481203 0)
(-0.0226156 0.0322138 0)
(-0.0230596 0.0171569 0)
(-0.0231664 0.00246731 0)
(-0.0228775 -0.012335 0)
(-0.0221462 -0.0276757 0)
(-0.02098 -0.0439457 0)
(-0.019523 -0.0616174 0)
(-0.0178819 -0.0817167 0)
(-0.0169414 -0.106039 0)
(-0.0142576 -0.138172 0)
(-0.0156372 -0.178258 0)
(-0.00421481 -0.21512 0)
(-0.000159252 0.123738 0)
(-0.00132122 0.140702 0)
(-0.00328071 0.136536 0)
(-0.0041077 0.122593 0)
(-0.00498954 0.104286 0)
(-0.00577981 0.0849636 0)
(-0.00652647 0.0663 0)
(-0.00722847 0.0489295 0)
(-0.00784066 0.0328001 0)
(-0.00833416 0.0175156 0)
(-0.00867484 0.00256967 0)
(-0.00883042 -0.0125266 0)
(-0.00878346 -0.0281828 0)
(-0.00853935 -0.0447313 0)
(-0.00825862 -0.0625038 0)
(-0.00787882 -0.0824004 0)
(-0.00904531 -0.106362 0)
(-0.00758031 -0.13875 0)
(-0.01255 -0.180248 0)
(-0.00172852 -0.224716 0)
(0.00206664 0.122195 0)
(0.00460642 0.140475 0)
(0.0057914 0.13633 0)
(0.00695926 0.122696 0)
(0.00742138 0.104564 0)
(0.00759406 0.0854127 0)
(0.00748459 0.0668402 0)
(0.00718097 0.049483 0)
(0.00676142 0.0333271 0)
(0.00626906 0.0180014 0)
(0.00572504 0.00300724 0)
(0.00513222 -0.0121443 0)
(0.0044669 -0.0278514 0)
(0.00372454 -0.0444161 0)
(0.00269305 -0.0620523 0)
(0.00169265 -0.0814797 0)
(-0.00173518 -0.10501 0)
(-0.0013526 -0.137076 0)
(-0.0101807 -0.180219 0)
(1.19158e-05 -0.231982 0)
(0.0040904 0.117489 0)
(0.0104582 0.13741 0)
(0.0141401 0.134263 0)
(0.0175301 0.121656 0)
(0.0195653 0.10391 0)
(0.0208587 0.0851751 0)
(0.021548 0.0669086 0)
(0.0217678 0.0497622 0)
(0.0216306 0.0337658 0)
(0.0211955 0.0185942 0)
(0.0204716 0.00377835 0)
(0.0194409 -0.0111641 0)
(0.0180306 -0.0266273 0)
(0.0162498 -0.0429056 0)
(0.0138463 -0.0601299 0)
(0.0111228 -0.0788481 0)
(0.00545435 -0.101583 0)
(0.00481483 -0.133017 0)
(-0.00829931 -0.177947 0)
(0.00268607 -0.236791 0)
(0.00632005 0.108075 0)
(0.0159203 0.130535 0)
(0.0225502 0.128734 0)
(0.0278311 0.118047 0)
(0.0316771 0.1015 0)
(0.034253 0.0836836 0)
(0.0359221 0.0661337 0)
(0.0368338 0.0495302 0)
(0.0371087 0.0339795 0)
(0.0368162 0.0192288 0)
(0.0359512 0.00486815 0)
(0.0344917 -0.00955905 0)
(0.0322995 -0.0244288 0)
(0.029427 -0.0400589 0)
(0.0254475 -0.0565407 0)
(0.0209553 -0.0744427 0)
(0.0130303 -0.0959133 0)
(0.010884 -0.12677 0)
(-0.00665801 -0.173809 0)
(0.00567636 -0.239541 0)
(0.00820615 0.0950488 0)
(0.0208046 0.121815 0)
(0.0301524 0.122314 0)
(0.03757 0.113216 0)
(0.0434909 0.0981405 0)
(0.0477187 0.0813885 0)
(0.050671 0.0647256 0)
(0.0525333 0.0488717 0)
(0.0534193 0.0339949 0)
(0.0534076 0.0199137 0)
(0.0524747 0.00629117 0)
(0.0506129 -0.00730206 0)
(0.0475915 -0.0212068 0)
(0.0435797 -0.035781 0)
(0.0378471 -0.0511466 0)
(0.0315373 -0.0678951 0)
(0.0211053 -0.0879166 0)
(0.0172566 -0.11853 0)
(-0.00461764 -0.167988 0)
(0.00996943 -0.240375 0)
(0.00994753 0.0783492 0)
(0.0251067 0.108244 0)
(0.0369048 0.11164 0)
(0.0466956 0.104685 0)
(0.0548649 0.0918265 0)
(0.0611166 0.0768487 0)
(0.0657016 0.0616487 0)
(0.0688174 0.0470568 0)
(0.0705575 0.0333231 0)
(0.0710158 0.0203436 0)
(0.0701288 0.00787452 0)
(0.0679356 -0.0044747 0)
(0.0640579 -0.016958 0)
(0.05891 -0.030011 0)
(0.0512787 -0.0437952 0)
(0.043142 -0.0590896 0)
(0.0298525 -0.0775267 0)
(0.0242892 -0.108114 0)
(-0.00221157 -0.160533 0)
(0.0150728 -0.240007 0)
(0.0100876 0.0591433 0)
(0.0272802 0.0946778 0)
(0.0412866 0.100973 0)
(0.0537067 0.0956789 0)
(0.0646857 0.0846812 0)
(0.073591 0.071459 0)
(0.0803535 0.0578348 0)
(0.0851538 0.0446941 0)
(0.0880818 0.0323505 0)
(0.0892815 0.0207496 0)
(0.0886148 0.00975388 0)
(0.0862732 -0.00102556 0)
(0.0816086 -0.0116776 0)
(0.0754675 -0.022774 0)
(0.0659087 -0.0344874 0)
(0.0561108 -0.0480104 0)
(0.0397657 -0.0646099 0)
(0.0326943 -0.0955566 0)
(0.00101692 -0.151013 0)
(0.021823 -0.237413 0)
(0.00873928 0.0397589 0)
(0.0265852 0.0743695 0)
(0.0429957 0.0831032 0)
(0.0584091 0.0803904 0)
(0.0725165 0.0721095 0)
(0.08452 0.0616064 0)
(0.0939265 0.0504606 0)
(0.10081 0.0395923 0)
(0.105213 0.0294231 0)
(0.107433 0.0199253 0)
(0.107147 0.0110632 0)
(0.10498 0.00245491 0)
(0.0997979 -0.00589435 0)
(0.0931912 -0.0145634 0)
(0.0821215 -0.0236039 0)
(0.0713712 -0.0349442 0)
(0.0522296 -0.0491209 0)
(0.044248 -0.0806764 0)
(0.00628111 -0.139362 0)
(0.0309342 -0.229461 0)
(-0.00211874 0.0247542 0)
(0.0180823 0.0602858 0)
(0.0375892 0.0681652 0)
(0.0571131 0.0664034 0)
(0.0752796 0.059987 0)
(0.0909306 0.0518353 0)
(0.103495 0.043318 0)
(0.113076 0.0348426 0)
(0.119544 0.0269042 0)
(0.123497 0.0195816 0)
(0.124333 0.0129298 0)
(0.123273 0.00664723 0)
(0.118655 0.000797368 0)
(0.113141 -0.0053701 0)
(0.10215 -0.011581 0)
(0.0923013 -0.0203003 0)
(0.0717075 -0.0317735 0)
(0.0638519 -0.0633864 0)
(0.0192469 -0.122618 0)
(0.0464548 -0.206463 0)
(-0.0148503 0.0297511 0)
(-0.00158627 0.0285687 0)
(0.0258846 0.0339046 0)
(0.0516249 0.0354169 0)
(0.0747848 0.0334298 0)
(0.0949654 0.0294217 0)
(0.111697 0.0248713 0)
(0.125156 0.0204655 0)
(0.135004 0.016379 0)
(0.142112 0.0125691 0)
(0.145854 0.00923171 0)
(0.147632 0.00590829 0)
(0.1459 0.00313229 0)
(0.143011 -0.000518887 0)
(0.135132 -0.00356366 0)
(0.128555 -0.00974645 0)
(0.110982 -0.0186732 0)
(0.104797 -0.0463592 0)
(0.0586216 -0.093817 0)
(0.0780821 -0.157246 0)
(0.0395594 0.0381303 0)
(0.0457515 0.0273947 0)
(0.070104 0.0246567 0)
(0.100474 0.0248861 0)
(0.127172 0.0240072 0)
(0.151816 0.0220499 0)
(0.173609 0.019508 0)
(0.192869 0.0172218 0)
(0.208608 0.0148868 0)
(0.222028 0.0130304 0)
(0.232129 0.0110605 0)
(0.240471 0.00963972 0)
(0.245762 0.00787053 0)
(0.249628 0.00668107 0)
(0.250456 0.00468162 0)
(0.248091 0.0020829 0)
(0.239116 0.00174551 0)
(0.223794 -0.0102475 0)
(0.173968 -0.013272 0)
(0.146209 -0.0644684 0)
)
;

boundaryField
{
    movingWall
    {
        type            fixedValue;
        value           uniform (1 0 0);
    }
    fixedWalls
    {
        type            noSlip;
    }
    frontAndBack
    {
        type            empty;
    }
}


// ************************************************************************* //
