/*--------------------------------*- C++ -*----------------------------------*\
| =========                 |                                                 |
| \\      /  F ield         | OpenFOAM: The Open Source CFD Toolbox           |
|  \\    /   O peration     | Version:  5.0                                   |
|   \\  /    A nd           | Web:      www.OpenFOAM.org                      |
|    \\/     M anipulation  |                                                 |
\*---------------------------------------------------------------------------*/
FoamFile
{
    version     2.0;
    format      ascii;
    class       volScalarField;
    location    "5.5";
    object      p;
}
// * * * * * * * * * * * * * * * * * * * * * * * * * * * * * * * * * * * * * //

dimensions      [0 2 -2 0 0 0 0];

internalField   nonuniform List<scalar> 
400
(
3.93541e-08
-6.59656e-05
-0.000196722
-0.000162766
-0.000516725
-0.00167695
-0.00329816
-0.00486004
-0.00617475
-0.00712838
-0.00767249
-0.00774689
-0.00729686
-0.0061644
-0.00419506
-0.00134047
0.00231274
0.00627243
0.009154
0.0104301
5.10159e-05
-1.01006e-05
-0.000144078
-0.00057591
-0.00145855
-0.0027887
-0.00425245
-0.0056865
-0.00688941
-0.00777053
-0.00828504
-0.00838878
-0.00803051
-0.00710479
-0.00548119
-0.00307465
0.000116478
0.0038828
0.0071641
0.00913181
0.000207201
-2.62824e-05
-0.000558216
-0.00151809
-0.00289149
-0.00438455
-0.00584364
-0.00719714
-0.00824293
-0.00898062
-0.00939468
-0.00945066
-0.00907809
-0.00826221
-0.00696489
-0.00514425
-0.00269332
0.000431639
0.00367254
0.0059338
0.000154852
-0.00034794
-0.00138744
-0.00291464
-0.00461658
-0.00620311
-0.00751223
-0.00848739
-0.00920548
-0.00972265
-0.0100133
-0.0100358
-0.00973297
-0.00905658
-0.00801835
-0.00665379
-0.00493639
-0.00260645
0.000108772
0.00221619
-0.00046028
-0.00117236
-0.00262444
-0.00447643
-0.00621582
-0.00758176
-0.00855054
-0.0092491
-0.00981877
-0.0102783
-0.0105803
-0.0106463
-0.0104146
-0.00985442
-0.00898386
-0.00787013
-0.00662454
-0.00499586
-0.00307732
-0.00121399
-0.00163182
-0.0024253
-0.00402962
-0.0058662
-0.00742804
-0.00847983
-0.00915824
-0.00972255
-0.0102583
-0.0107569
-0.0111445
-0.0113027
-0.0111699
-0.0107245
-0.00999778
-0.00904234
-0.0080837
-0.00690196
-0.00559201
-0.00408578
-0.00300644
-0.00379075
-0.00531288
-0.00696316
-0.00826311
-0.00903322
-0.00955764
-0.0100843
-0.0106478
-0.0112261
-0.0117197
-0.0119823
-0.0119441
-0.0115923
-0.0109798
-0.0101186
-0.00932992
-0.00841912
-0.00752218
-0.00633818
-0.00426177
-0.004969
-0.00630043
-0.00774092
-0.00879062
-0.00936885
-0.00983733
-0.0103694
-0.0109875
-0.0116615
-0.012262
-0.0126219
-0.0126642
-0.012374
-0.0118323
-0.0110225
-0.0103273
-0.00952869
-0.0089126
-0.00798772
-0.0051854
-0.00580736
-0.00694998
-0.00820754
-0.00908945
-0.00956003
-0.0100197
-0.0105729
-0.0112451
-0.0119946
-0.0126721
-0.0131002
-0.0132018
-0.0129441
-0.0124388
-0.0116359
-0.0110155
-0.0101882
-0.00987104
-0.00904893
-0.00572031
-0.0062647
-0.00726224
-0.00839988
-0.00919374
-0.00962788
-0.010099
-0.0106506
-0.0113564
-0.0121419
-0.0128542
-0.0133036
-0.0134399
-0.0131902
-0.0127102
-0.0118604
-0.0113478
-0.0103697
-0.0103846
-0.00955196
-0.00585794
-0.00635814
-0.00727571
-0.00835277
-0.00912042
-0.00957438
-0.010041
-0.0105967
-0.0112866
-0.0120592
-0.0127626
-0.0132071
-0.0133398
-0.0130964
-0.0125801
-0.0117329
-0.0112054
-0.0101515
-0.0104534
-0.00951165
-0.00564788
-0.00614014
-0.00702176
-0.00809052
-0.00889079
-0.00938257
-0.009841
-0.0103736
-0.0110205
-0.0117388
-0.0123996
-0.0128094
-0.0129132
-0.0126468
-0.0120822
-0.0112453
-0.0106612
-0.00961062
-0.0100712
-0.00896646
-0.00519088
-0.00571273
-0.00657578
-0.00761648
-0.00850192
-0.00905042
-0.00950851
-0.0100035
-0.0105841
-0.0112106
-0.0117916
-0.012135
-0.0121859
-0.0118907
-0.01129
-0.0104509
-0.00979161
-0.00878102
-0.00935298
-0.00799927
-0.0046698
-0.00518661
-0.00598986
-0.00694386
-0.00790842
-0.00856205
-0.00905529
-0.0095194
-0.0100236
-0.0105441
-0.0110231
-0.0112891
-0.0112758
-0.0109423
-0.0103153
-0.00946567
-0.0087313
-0.0077625
-0.0083603
-0.00667824
-0.00424031
-0.00466643
-0.00531425
-0.00612173
-0.00708566
-0.00788664
-0.00848719
-0.00896578
-0.00941774
-0.00984551
-0.0102156
-0.010396
-0.0103141
-0.00993299
-0.00927211
-0.00840019
-0.00759243
-0.0066563
-0.00722989
-0.00508618
-0.00407424
-0.00422526
-0.00454092
-0.00513768
-0.00604825
-0.00699335
-0.00777283
-0.00835943
-0.00883132
-0.00921421
-0.00949725
-0.00959431
-0.00944909
-0.00902254
-0.00833031
-0.00741424
-0.00652036
-0.00556695
-0.00594981
-0.00320803
-0.00410807
-0.00387888
-0.00368951
-0.00400053
-0.00483252
-0.00588479
-0.00687109
-0.00764866
-0.00823358
-0.008656
-0.00892473
-0.00899204
-0.0087989
-0.00830858
-0.00754984
-0.00654972
-0.00551834
-0.00445533
-0.0044639
-0.000875795
-0.00391756
-0.00333016
-0.00271927
-0.00276509
-0.00351979
-0.00464724
-0.00581831
-0.00679851
-0.00755158
-0.00807596
-0.00837319
-0.00842905
-0.00821554
-0.00770966
-0.00689463
-0.00580696
-0.00456855
-0.003264
-0.00226933
0.00345276
-0.00347935
-0.00262939
-0.00181225
-0.00175
-0.00245476
-0.00361912
-0.00491238
-0.00606438
-0.00696194
-0.0075879
-0.00793958
-0.00802714
-0.00782849
-0.00731176
-0.0064728
-0.00531067
-0.00383504
-0.00158146
0.00316863
0.0155991
-0.00485967
-0.00188063
-0.000922588
-0.00102242
-0.00171963
-0.00292046
-0.00428358
-0.00558429
-0.00659848
-0.00730619
-0.00770222
-0.0078261
-0.00765606
-0.00718152
-0.00630311
-0.00492624
-0.00231632
0.00366334
0.0170653
0.0394729
)
;

boundaryField
{
    movingWall
    {
        type            zeroGradient;
    }
    fixedWalls
    {
        type            zeroGradient;
    }
    frontAndBack
    {
        type            empty;
    }
}


// ************************************************************************* //
