/*--------------------------------*- C++ -*----------------------------------*\
| =========                 |                                                 |
| \\      /  F ield         | OpenFOAM: The Open Source CFD Toolbox           |
|  \\    /   O peration     | Version:  5.0                                   |
|   \\  /    A nd           | Web:      www.OpenFOAM.org                      |
|    \\/     M anipulation  |                                                 |
\*---------------------------------------------------------------------------*/
FoamFile
{
    version     2.0;
    format      ascii;
    class       surfaceScalarField;
    location    "5.5";
    object      phi;
}
// * * * * * * * * * * * * * * * * * * * * * * * * * * * * * * * * * * * * * //

dimensions      [0 3 -1 0 0 0 0];

internalField   nonuniform List<scalar> 
760
(
2.09054e-07
-2.09058e-07
1.41947e-07
6.71068e-08
-3.82639e-07
5.24587e-07
-1.58011e-06
1.19747e-06
-3.16845e-06
1.58834e-06
-4.60293e-06
1.43448e-06
-5.80737e-06
1.20444e-06
-6.7197e-06
9.12337e-07
-7.4208e-06
7.01094e-07
-7.91458e-06
4.93784e-07
-8.23889e-06
3.24311e-07
-8.38524e-06
1.46352e-07
-8.35604e-06
-2.92092e-08
-8.12737e-06
-2.28666e-07
-7.68983e-06
-4.37535e-07
-6.90453e-06
-7.85306e-07
-5.67949e-06
-1.22504e-06
-3.84629e-06
-1.8332e-06
-1.61159e-06
-2.2347e-06
-1.61159e-06
-2.23404e-07
1.43461e-08
-1.01734e-06
8.61042e-07
-2.44074e-06
1.94798e-06
-3.99661e-06
2.75335e-06
-5.12907e-06
2.7208e-06
-6.07817e-06
2.38358e-06
-6.8168e-06
1.94307e-06
-7.42968e-06
1.52521e-06
-7.88179e-06
1.1532e-06
-8.17372e-06
7.85717e-07
-8.31896e-06
4.69549e-07
-8.2918e-06
1.19194e-07
-8.1449e-06
-1.76113e-07
-7.86937e-06
-5.04196e-07
-7.41949e-06
-8.87415e-07
-6.7782e-06
-1.4266e-06
-5.80438e-06
-2.19885e-06
-4.32825e-06
-3.30933e-06
-2.23998e-06
-4.32297e-06
-3.85157e-06
-7.89923e-07
8.04269e-07
-2.0832e-06
2.15432e-06
-3.47186e-06
3.33664e-06
-4.52324e-06
3.80473e-06
-5.30305e-06
3.50061e-06
-5.88466e-06
2.96519e-06
-6.21373e-06
2.27214e-06
-6.38804e-06
1.69952e-06
-6.37018e-06
1.13534e-06
-6.31557e-06
7.31109e-07
-6.22488e-06
3.78854e-07
-6.17172e-06
6.60409e-08
-6.0281e-06
-3.19735e-07
-5.79452e-06
-7.3778e-07
-5.44611e-06
-1.23583e-06
-5.00281e-06
-1.8699e-06
-4.46506e-06
-2.7366e-06
-3.61551e-06
-4.15888e-06
-2.15728e-06
-5.7812e-06
-6.00885e-06
-1.13722e-06
1.94149e-06
-2.48819e-06
3.50529e-06
-3.57667e-06
4.42512e-06
-4.27084e-06
4.4989e-06
-4.65192e-06
3.88169e-06
-4.69466e-06
3.00793e-06
-4.53782e-06
2.1153e-06
-4.38368e-06
1.54538e-06
-4.34788e-06
1.09954e-06
-4.39212e-06
7.75354e-07
-4.43952e-06
4.26256e-07
-4.42644e-06
5.29539e-08
-4.33113e-06
-4.15045e-07
-4.12955e-06
-9.39359e-07
-3.82065e-06
-1.54472e-06
-3.44842e-06
-2.24213e-06
-3.0725e-06
-3.11252e-06
-2.57102e-06
-4.66035e-06
-1.64404e-06
-6.70818e-06
-7.65289e-06
-1.1505e-06
3.09199e-06
-2.2673e-06
4.62209e-06
-2.99316e-06
5.15098e-06
-3.37758e-06
4.88332e-06
-3.3913e-06
3.89541e-06
-3.20611e-06
2.82274e-06
-3.07976e-06
1.98895e-06
-3.09678e-06
1.56241e-06
-3.22069e-06
1.22345e-06
-3.40031e-06
9.54972e-07
-3.54914e-06
5.75086e-07
-3.60196e-06
1.05781e-07
-3.53e-06
-4.87012e-07
-3.32251e-06
-1.14684e-06
-2.98718e-06
-1.88005e-06
-2.54661e-06
-2.68271e-06
-2.15704e-06
-3.5021e-06
-1.91025e-06
-4.90714e-06
-1.27697e-06
-7.34147e-06
-8.92986e-06
-9.62756e-07
4.05474e-06
-1.75323e-06
5.41256e-06
-2.23107e-06
5.62882e-06
-2.39536e-06
5.04761e-06
-2.29432e-06
3.79437e-06
-2.11919e-06
2.64761e-06
-2.12851e-06
1.99826e-06
-2.27127e-06
1.70517e-06
-2.52058e-06
1.47276e-06
-2.77865e-06
1.21304e-06
-2.97569e-06
7.72125e-07
-3.04026e-06
1.70355e-07
-2.96343e-06
-5.6384e-07
-2.73989e-06
-1.37039e-06
-2.40805e-06
-2.21189e-06
-1.97869e-06
-3.11206e-06
-1.51843e-06
-3.96235e-06
-1.20664e-06
-5.21893e-06
-9.54562e-07
-7.59354e-06
-9.88442e-06
-6.7012e-07
4.72486e-06
-1.18228e-06
5.92472e-06
-1.4798e-06
5.92635e-06
-1.54135e-06
5.10916e-06
-1.43164e-06
3.68466e-06
-1.3737e-06
2.58966e-06
-1.48527e-06
2.10984e-06
-1.71525e-06
1.93515e-06
-1.99693e-06
1.75444e-06
-2.25086e-06
1.46698e-06
-2.426e-06
9.47263e-07
-2.47335e-06
2.17705e-07
-2.39321e-06
-6.43984e-07
-2.18353e-06
-1.58007e-06
-1.87995e-06
-2.51547e-06
-1.52683e-06
-3.46518e-06
-1.15367e-06
-4.33551e-06
-9.07342e-07
-5.46526e-06
-7.1425e-07
-7.78663e-06
-1.05987e-05
-3.6182e-07
5.08668e-06
-6.70864e-07
6.23377e-06
-8.51076e-07
6.10656e-06
-8.74172e-07
5.13226e-06
-8.01827e-07
3.61232e-06
-8.34066e-07
2.6219e-06
-9.8548e-07
2.26125e-06
-1.21025e-06
2.15992e-06
-1.45427e-06
1.99845e-06
-1.66271e-06
1.67542e-06
-1.79397e-06
1.07852e-06
-1.82742e-06
2.51154e-07
-1.77033e-06
-7.01069e-07
-1.61215e-06
-1.73825e-06
-1.36533e-06
-2.7623e-06
-1.08708e-06
-3.74344e-06
-7.60449e-07
-4.66214e-06
-5.58191e-07
-5.66752e-06
-5.30713e-07
-7.81411e-06
-1.11294e-05
-1.10136e-07
5.19682e-06
-2.50516e-07
6.37415e-06
-3.27576e-07
6.18362e-06
-3.38409e-07
5.14309e-06
-3.04959e-07
3.57887e-06
-3.67136e-07
2.68408e-06
-4.99764e-07
2.39388e-06
-6.63411e-07
2.32357e-06
-8.37585e-07
2.17263e-06
-9.78007e-07
1.81584e-06
-1.05772e-06
1.15823e-06
-1.07334e-06
2.66778e-07
-1.04363e-06
-7.30783e-07
-9.61289e-07
-1.82059e-06
-8.18785e-07
-2.9048e-06
-6.56019e-07
-3.9062e-06
-5.05927e-07
-4.81223e-06
-3.87132e-07
-5.78631e-06
-3.91344e-07
-7.8099e-06
-1.15207e-05
1.26614e-07
5.07021e-06
1.29277e-07
6.37148e-06
1.23123e-07
6.18977e-06
1.19019e-07
5.14719e-06
1.20484e-07
3.5774e-06
7.24202e-08
2.73214e-06
6.913e-09
2.45939e-06
-8.17312e-08
2.41221e-06
-1.7012e-07
2.26102e-06
-2.30974e-07
1.8767e-06
-2.61279e-07
1.18854e-06
-2.72352e-07
2.77851e-07
-2.62602e-07
-7.40532e-07
-2.63615e-07
-1.81958e-06
-2.15388e-07
-2.95303e-06
-1.98121e-07
-3.92347e-06
-1.10129e-07
-4.90022e-06
-1.42319e-07
-5.75412e-06
-2.89053e-07
-7.66317e-06
-1.18098e-05
3.2554e-07
4.74467e-06
4.76632e-07
6.22039e-06
5.75991e-07
6.09041e-06
5.31656e-07
5.19153e-06
4.87301e-07
3.62176e-06
4.80647e-07
2.7388e-06
4.94097e-07
2.44594e-06
5.20375e-07
2.38593e-06
5.45495e-07
2.2359e-06
5.60033e-07
1.86216e-06
5.59372e-07
1.1892e-06
5.27496e-07
3.09727e-07
4.98788e-07
-7.11823e-07
4.47156e-07
-1.76795e-06
3.78467e-07
-2.88434e-06
2.50745e-07
-3.79575e-06
1.49768e-07
-4.79925e-06
-5.91696e-08
-5.54518e-06
-2.09722e-07
-7.51261e-06
-1.20195e-05
5.10449e-07
4.23422e-06
8.00541e-07
5.9303e-06
9.74778e-07
5.91618e-06
9.57826e-07
5.20848e-06
8.81202e-07
3.69838e-06
8.85978e-07
2.73402e-06
9.71848e-07
2.36007e-06
1.1048e-06
2.25298e-06
1.23786e-06
2.10284e-06
1.33637e-06
1.76365e-06
1.3765e-06
1.14907e-06
1.3504e-06
3.35826e-07
1.27192e-06
-6.3335e-07
1.16938e-06
-1.6654e-06
9.70407e-07
-2.68536e-06
7.62786e-07
-3.58813e-06
4.68735e-07
-4.50519e-06
1.5622e-07
-5.23267e-06
-1.06089e-07
-7.2503e-06
-1.21256e-05
7.00331e-07
3.53389e-06
1.09332e-06
5.53731e-06
1.36053e-06
5.64896e-06
1.41655e-06
5.15246e-06
1.292e-06
3.82293e-06
1.29597e-06
2.73005e-06
1.43115e-06
2.22489e-06
1.64144e-06
2.04269e-06
1.85519e-06
1.88909e-06
2.02781e-06
1.59103e-06
2.11575e-06
1.06113e-06
2.10847e-06
3.4311e-07
1.99306e-06
-5.17941e-07
1.79965e-06
-1.47199e-06
1.50378e-06
-2.3895e-06
1.14949e-06
-3.23383e-06
6.9012e-07
-4.04582e-06
2.57925e-07
-4.80047e-06
-1.54232e-08
-6.97696e-06
-1.2141e-05
8.52131e-07
2.68176e-06
1.38098e-06
5.00846e-06
1.70892e-06
5.32103e-06
1.87205e-06
4.98933e-06
1.75729e-06
3.93769e-06
1.71669e-06
2.77065e-06
1.83846e-06
2.10312e-06
2.08486e-06
1.79629e-06
2.36414e-06
1.6098e-06
2.60086e-06
1.35432e-06
2.73133e-06
9.30649e-07
2.74882e-06
3.25622e-07
2.62041e-06
-3.89532e-07
2.37331e-06
-1.22489e-06
1.99674e-06
-2.01293e-06
1.54405e-06
-2.78115e-06
9.75e-07
-3.47677e-06
4.44456e-07
-4.26993e-06
8.22127e-08
-6.61471e-06
-1.20588e-05
9.67688e-07
1.71407e-06
1.55937e-06
4.41678e-06
1.98909e-06
4.89131e-06
2.30055e-06
4.67787e-06
2.31294e-06
3.9253e-06
2.25779e-06
2.8258e-06
2.30039e-06
2.06052e-06
2.48976e-06
1.60692e-06
2.76244e-06
1.33713e-06
3.03305e-06
1.0837e-06
3.1991e-06
7.64598e-07
3.23945e-06
2.8527e-07
3.10747e-06
-2.57546e-07
2.81608e-06
-9.33508e-07
2.36493e-06
-1.56178e-06
1.817e-06
-2.23322e-06
1.17025e-06
-2.83001e-06
5.32744e-07
-3.63243e-06
1.75341e-07
-6.25731e-06
-1.18835e-05
8.87347e-07
8.26721e-07
1.58343e-06
3.72069e-06
2.14506e-06
4.32968e-06
2.64125e-06
4.18168e-06
2.88995e-06
3.6766e-06
2.90801e-06
2.80774e-06
2.9175e-06
2.05102e-06
3.00176e-06
1.52266e-06
3.15991e-06
1.17898e-06
3.3597e-06
8.8391e-07
3.49283e-06
6.31466e-07
3.5289e-06
2.49196e-07
3.40603e-06
-1.34677e-07
3.10928e-06
-6.36751e-07
2.64369e-06
-1.09619e-06
2.10854e-06
-1.69807e-06
1.42898e-06
-2.15045e-06
7.37016e-07
-2.94046e-06
3.70474e-07
-5.89077e-06
-1.1513e-05
4.35085e-07
3.91636e-07
1.32905e-06
2.82672e-06
2.1408e-06
3.51793e-06
2.85264e-06
3.46984e-06
3.37172e-06
3.15752e-06
3.64041e-06
2.53905e-06
3.74897e-06
1.94247e-06
3.83349e-06
1.43813e-06
3.90183e-06
1.11065e-06
3.98682e-06
7.98922e-07
4.02878e-06
5.89497e-07
4.00007e-06
2.77913e-07
3.81797e-06
4.742e-08
3.53069e-06
-3.49468e-07
3.06186e-06
-6.27361e-07
2.47234e-06
-1.10855e-06
1.72693e-06
-1.40504e-06
1.01972e-06
-2.23325e-06
6.77508e-07
-5.54856e-06
-1.08355e-05
-2.64756e-07
6.56392e-07
7.35697e-07
1.82627e-06
1.72335e-06
2.53028e-06
2.70445e-06
2.48874e-06
3.51649e-06
2.34549e-06
4.10303e-06
1.9525e-06
4.46434e-06
1.58116e-06
4.70299e-06
1.19949e-06
4.832e-06
9.8163e-07
4.89983e-06
7.31097e-07
4.88734e-06
6.01982e-07
4.7868e-06
3.78452e-07
4.58582e-06
2.48408e-07
4.22931e-06
7.04133e-09
3.74463e-06
-1.42686e-07
3.05157e-06
-4.15485e-07
2.27134e-06
-6.24812e-07
1.67806e-06
-1.63997e-06
1.23207e-06
-5.10258e-06
-9.60341e-06
-1.0676e-06
1.72399e-06
-2.65145e-07
1.02382e-06
1.03061e-06
1.23453e-06
2.26309e-06
1.25626e-06
3.33756e-06
1.27101e-06
4.17623e-06
1.11384e-06
4.76805e-06
9.89333e-07
5.17958e-06
7.87962e-07
5.44704e-06
7.14176e-07
5.60403e-06
5.74103e-07
5.66891e-06
5.37103e-07
5.63141e-06
4.1595e-07
5.48517e-06
3.94651e-07
5.21254e-06
2.79671e-07
4.8335e-06
2.3635e-07
4.35215e-06
6.58686e-08
3.91348e-06
-1.86141e-07
3.53262e-06
-1.25911e-06
2.48239e-06
-4.05234e-06
-7.12102e-06
1.72399e-06
2.74781e-06
3.98233e-06
5.2386e-06
6.50961e-06
7.62345e-06
8.61278e-06
9.40074e-06
1.01149e-05
1.0689e-05
1.12261e-05
1.16421e-05
1.20367e-05
1.23164e-05
1.25527e-05
1.26186e-05
1.24325e-05
1.11734e-05
7.12102e-06
)
;

boundaryField
{
    movingWall
    {
        type            calculated;
        value           uniform 0;
    }
    fixedWalls
    {
        type            calculated;
        value           uniform 0;
    }
    frontAndBack
    {
        type            empty;
        value           nonuniform 0();
    }
}


// ************************************************************************* //
