/*--------------------------------*- C++ -*----------------------------------*\
| =========                 |                                                 |
| \\      /  F ield         | OpenFOAM: The Open Source CFD Toolbox           |
|  \\    /   O peration     | Version:  5.0                                   |
|   \\  /    A nd           | Web:      www.OpenFOAM.org                      |
|    \\/     M anipulation  |                                                 |
\*---------------------------------------------------------------------------*/
FoamFile
{
    version     2.0;
    format      ascii;
    class       volVectorField;
    location    "5.5";
    object      U;
}
// * * * * * * * * * * * * * * * * * * * * * * * * * * * * * * * * * * * * * //

dimensions      [0 1 -1 0 0 0 0];

internalField   nonuniform List<vector> 
400
(
(0.00201058 -0.00330384 0)
(0.00626827 -0.00211573 0)
(-0.00135484 0.000872834 0)
(-0.0120176 0.00703849 0)
(-0.0478823 0.0159623 0)
(-0.0827708 0.0145073 0)
(-0.107336 0.0126484 0)
(-0.128581 0.0112534 0)
(-0.142778 0.00896751 0)
(-0.15521 0.00774418 0)
(-0.162569 0.00567247 0)
(-0.167682 0.00450254 0)
(-0.169532 0.00256528 0)
(-0.167874 -0.000259349 0)
(-0.159602 -0.00289476 0)
(-0.146079 -0.00772434 0)
(-0.1233 -0.0130725 0)
(-0.0927736 -0.0187488 0)
(-0.0554513 -0.0185327 0)
(-0.0120104 -0.00524699 0)
(-0.00011933 -0.00548882 0)
(-0.00868404 0.0051962 0)
(-0.0301071 0.0222889 0)
(-0.0653366 0.0423681 0)
(-0.0947757 0.0441168 0)
(-0.115134 0.0388978 0)
(-0.130746 0.0331147 0)
(-0.144696 0.0238395 0)
(-0.154081 0.0181874 0)
(-0.161923 0.011279 0)
(-0.165789 0.0065859 0)
(-0.168185 0.000662006 0)
(-0.166482 -0.00419892 0)
(-0.163115 -0.0106522 0)
(-0.154959 -0.0176045 0)
(-0.142944 -0.0282249 0)
(-0.124074 -0.0418525 0)
(-0.0982461 -0.0610922 0)
(-0.0671782 -0.0751638 0)
(-0.0174251 -0.0551527 0)
(-0.00485838 0.00635634 0)
(-0.0258751 0.0310852 0)
(-0.0555582 0.0546203 0)
(-0.0837804 0.0661021 0)
(-0.101477 0.0618523 0)
(-0.113441 0.0534856 0)
(-0.123029 0.0410605 0)
(-0.127939 0.032639 0)
(-0.127616 0.0235046 0)
(-0.127254 0.0163533 0)
(-0.125731 0.00925609 0)
(-0.12471 0.00264928 0)
(-0.12297 -0.00437906 0)
(-0.119797 -0.0118396 0)
(-0.114178 -0.0210911 0)
(-0.10664 -0.0336894 0)
(-0.0950729 -0.0529222 0)
(-0.077104 -0.0805556 0)
(-0.0591422 -0.108241 0)
(-0.0200999 -0.1085 0)
(-0.00878495 0.0280329 0)
(-0.0360572 0.0575851 0)
(-0.0646291 0.078603 0)
(-0.0823243 0.0821175 0)
(-0.0925482 0.0733528 0)
(-0.0963135 0.0597741 0)
(-0.092788 0.0452426 0)
(-0.0873382 0.0326096 0)
(-0.0863946 0.0224726 0)
(-0.0876992 0.0147427 0)
(-0.0886697 0.00765318 0)
(-0.0898363 0.000810658 0)
(-0.0883276 -0.00685228 0)
(-0.085455 -0.0155083 0)
(-0.0800308 -0.0256703 0)
(-0.0742382 -0.0382593 0)
(-0.0674525 -0.0564689 0)
(-0.0522808 -0.0895572 0)
(-0.0443711 -0.128332 0)
(-0.015225 -0.139774 0)
(-0.00816298 0.0492322 0)
(-0.0373794 0.0810251 0)
(-0.0565508 0.0950182 0)
(-0.067801 0.0933747 0)
(-0.0707589 0.0781091 0)
(-0.0656482 0.0597222 0)
(-0.0603212 0.0417922 0)
(-0.0604963 0.0317017 0)
(-0.0627671 0.0233601 0)
(-0.0671142 0.0175145 0)
(-0.0704317 0.0100407 0)
(-0.0727033 0.00148587 0)
(-0.0719488 -0.00911122 0)
(-0.0687758 -0.0208463 0)
(-0.0627939 -0.034057 0)
(-0.0550222 -0.0482369 0)
(-0.0500983 -0.0638318 0)
(-0.0346289 -0.0934563 0)
(-0.038656 -0.143394 0)
(-0.00619717 -0.169793 0)
(-0.00717271 0.0705191 0)
(-0.0311863 0.10003 0)
(-0.0427522 0.107296 0)
(-0.0506071 0.0994768 0)
(-0.0481129 0.0783054 0)
(-0.0415374 0.0555833 0)
(-0.0403561 0.0404422 0)
(-0.0433502 0.0329274 0)
(-0.0480587 0.0271681 0)
(-0.0542357 0.0217685 0)
(-0.0588262 0.0135133 0)
(-0.0613132 0.00279779 0)
(-0.0605871 -0.0106131 0)
(-0.0571231 -0.0255823 0)
(-0.0511842 -0.0416745 0)
(-0.0423264 -0.0587663 0)
(-0.0395449 -0.0745941 0)
(-0.0196474 -0.0997915 0)
(-0.0295398 -0.148301 0)
(-0.00335145 -0.188126 0)
(-0.00513122 0.0876373 0)
(-0.0223282 0.112741 0)
(-0.0282977 0.115113 0)
(-0.0342582 0.101925 0)
(-0.0293779 0.0753758 0)
(-0.0253273 0.0524777 0)
(-0.0273066 0.0410587 0)
(-0.031695 0.0361708 0)
(-0.037704 0.032044 0)
(-0.0438689 0.0264247 0)
(-0.0482558 0.016776 0)
(-0.049972 0.00356777 0)
(-0.0489453 -0.0126888 0)
(-0.045628 -0.0304172 0)
(-0.0410159 -0.0483611 0)
(-0.0310204 -0.0670913 0)
(-0.0323367 -0.0842739 0)
(-0.0121835 -0.108368 0)
(-0.0260902 -0.154599 0)
(0.00177105 -0.206197 0)
(-0.00224425 0.0980732 0)
(-0.0129237 0.121614 0)
(-0.0163942 0.121016 0)
(-0.0204071 0.103353 0)
(-0.0154459 0.0738535 0)
(-0.0143885 0.0525833 0)
(-0.0174654 0.0438168 0)
(-0.0218346 0.0408478 0)
(-0.0273938 0.037273 0)
(-0.0325443 0.0310229 0)
(-0.0360493 0.0198363 0)
(-0.0369734 0.00440827 0)
(-0.0360799 -0.0142505 0)
(-0.0332936 -0.0345617 0)
(-0.0312198 -0.0543907 0)
(-0.0203539 -0.0738655 0)
(-0.0251656 -0.0910183 0)
(-0.00335271 -0.11167 0)
(-0.0210065 -0.155463 0)
(0.0031055 -0.216914 0)
(0.000629124 0.10408 0)
(-0.00548333 0.126643 0)
(-0.00591355 0.123424 0)
(-0.008922 0.103059 0)
(-0.00498809 0.0711659 0)
(-0.00569979 0.0524911 0)
(-0.00821645 0.045998 0)
(-0.0115879 0.0443568 0)
(-0.0156973 0.0411839 0)
(-0.019339 0.0344123 0)
(-0.0215454 0.0219128 0)
(-0.0218473 0.00487308 0)
(-0.0214369 -0.0150019 0)
(-0.0188928 -0.0368133 0)
(-0.0202479 -0.0581852 0)
(-0.00981163 -0.0783604 0)
(-0.0185773 -0.0970272 0)
(0.000926767 -0.116654 0)
(-0.0190275 -0.157238 0)
(0.00639904 -0.227866 0)
(0.00327932 0.103653 0)
(0.00135054 0.128859 0)
(0.00295145 0.124782 0)
(0.00091255 0.103351 0)
(0.00369163 0.0720549 0)
(0.00207458 0.0543566 0)
(0.00103971 0.0487525 0)
(-0.000721484 0.0475799 0)
(-0.00293639 0.0444903 0)
(-0.00464955 0.0370004 0)
(-0.00557081 0.0234 0)
(-0.00542577 0.00537901 0)
(-0.00607807 -0.0149447 0)
(-0.00349805 -0.0369765 0)
(-0.00789232 -0.0596495 0)
(0.00103761 -0.0788509 0)
(-0.0107409 -0.0981982 0)
(0.0081363 -0.114601 0)
(-0.0160896 -0.155452 0)
(0.00753873 -0.233446 0)
(0.0057638 0.100024 0)
(0.00665126 0.127402 0)
(0.0109861 0.12349 0)
(0.00991443 0.102859 0)
(0.0115074 0.0710928 0)
(0.00968143 0.0539246 0)
(0.0102281 0.0486839 0)
(0.0100338 0.0478853 0)
(0.0101638 0.0450419 0)
(0.0105198 0.0372062 0)
(0.0106138 0.0235814 0)
(0.0111877 0.00550742 0)
(0.00926669 -0.0150074 0)
(0.0115595 -0.0364142 0)
(0.0057361 -0.0590813 0)
(0.0115054 -0.0776311 0)
(-0.00344679 -0.0984937 0)
(0.0117632 -0.113765 0)
(-0.0158784 -0.152741 0)
(0.0104578 -0.238797 0)
(0.00701313 0.0915006 0)
(0.0125279 0.123387 0)
(0.0179835 0.121391 0)
(0.0184154 0.104453 0)
(0.0196763 0.073169 0)
(0.0176445 0.0551604 0)
(0.0188952 0.0487952 0)
(0.0205148 0.0472626 0)
(0.0227592 0.0442613 0)
(0.0251422 0.0372746 0)
(0.0263322 0.0241524 0)
(0.0278299 0.00696635 0)
(0.0251396 -0.0131895 0)
(0.0269591 -0.0341132 0)
(0.0196807 -0.0550709 0)
(0.0221499 -0.0738948 0)
(0.00520692 -0.0920739 0)
(0.0177227 -0.10662 0)
(-0.0145266 -0.146413 0)
(0.0126455 -0.240827 0)
(0.00947789 0.0807924 0)
(0.0170898 0.116199 0)
(0.0250339 0.116208 0)
(0.0268963 0.103841 0)
(0.0280611 0.0735768 0)
(0.0259353 0.0536164 0)
(0.0274009 0.0457143 0)
(0.0303477 0.043429 0)
(0.034147 0.0407323 0)
(0.0383694 0.0344492 0)
(0.0402514 0.0229093 0)
(0.0433338 0.00723877 0)
(0.0398622 -0.0110839 0)
(0.041077 -0.0309357 0)
(0.0321716 -0.050347 0)
(0.0312735 -0.0676651 0)
(0.0114389 -0.0855338 0)
(0.0211527 -0.101003 0)
(-0.0150314 -0.141698 0)
(0.0160376 -0.24198 0)
(0.0105165 0.0631608 0)
(0.0217563 0.107741 0)
(0.0319574 0.110713 0)
(0.0348676 0.103055 0)
(0.0373414 0.078583 0)
(0.0349835 0.0550355 0)
(0.035486 0.0438958 0)
(0.038913 0.0394826 0)
(0.0433559 0.0363667 0)
(0.0495879 0.0308158 0)
(0.0517488 0.0209992 0)
(0.0561871 0.00737442 0)
(0.0527619 -0.00854474 0)
(0.053185 -0.0261822 0)
(0.0434141 -0.0432119 0)
(0.0398193 -0.0594574 0)
(0.0189587 -0.0740598 0)
(0.0257013 -0.0890276 0)
(-0.0136536 -0.134368 0)
(0.019477 -0.240971 0)
(0.0124828 0.0466691 0)
(0.0244049 0.0946291 0)
(0.0369868 0.102096 0)
(0.0424199 0.0965296 0)
(0.0464699 0.0792375 0)
(0.0463572 0.0551902 0)
(0.0455971 0.0404157 0)
(0.04786 0.0333908 0)
(0.0508566 0.0294959 0)
(0.0581777 0.0249811 0)
(0.060546 0.0177424 0)
(0.065858 0.00659707 0)
(0.0627166 -0.00600872 0)
(0.0626026 -0.0209622 0)
(0.0518568 -0.0349379 0)
(0.0460053 -0.049141 0)
(0.0244424 -0.0622502 0)
(0.0283131 -0.0796265 0)
(-0.0135976 -0.129181 0)
(0.0247058 -0.240687 0)
(0.00982629 0.0207435 0)
(0.025858 0.0824225 0)
(0.0390906 0.0940652 0)
(0.0475831 0.0909348 0)
(0.0547741 0.0788125 0)
(0.0581244 0.058289 0)
(0.0583032 0.0414413 0)
(0.0598684 0.0304899 0)
(0.0597405 0.0242796 0)
(0.0654703 0.0191244 0)
(0.0666493 0.0138537 0)
(0.0715692 0.0056232 0)
(0.0686659 -0.0035289 0)
(0.0682968 -0.0150256 0)
(0.0576897 -0.0260585 0)
(0.051326 -0.0386429 0)
(0.0319763 -0.0498628 0)
(0.031213 -0.0653469 0)
(-0.00965479 -0.122137 0)
(0.0309756 -0.238829 0)
(-0.000940883 0.00985285 0)
(0.0197712 0.062274 0)
(0.0366121 0.0778312 0)
(0.0495064 0.0775092 0)
(0.0610424 0.070075 0)
(0.0700726 0.055752 0)
(0.0731363 0.0414579 0)
(0.0772494 0.0298413 0)
(0.0757909 0.0218509 0)
(0.0794311 0.0151347 0)
(0.0781432 0.0102668 0)
(0.0812767 0.00347332 0)
(0.0775683 -0.00244892 0)
(0.0762984 -0.0112845 0)
(0.0661376 -0.0181629 0)
(0.0595831 -0.0286377 0)
(0.0400965 -0.0358474 0)
(0.0347768 -0.0532933 0)
(-0.00346827 -0.119571 0)
(0.040261 -0.237958 0)
(-0.0157296 0.00554095 0)
(0.00679016 0.052208 0)
(0.0256308 0.0657496 0)
(0.0441034 0.0651782 0)
(0.0604992 0.060135 0)
(0.0763001 0.0493495 0)
(0.0845915 0.0392179 0)
(0.0930037 0.0301178 0)
(0.0942594 0.0243233 0)
(0.0980839 0.0179965 0)
(0.096525 0.0142653 0)
(0.0975342 0.00842522 0)
(0.0932466 0.00470049 0)
(0.0902817 -0.0019856 0)
(0.0802407 -0.00585304 0)
(0.0721406 -0.014227 0)
(0.0518127 -0.0184464 0)
(0.0426772 -0.0396821 0)
(0.0119509 -0.117518 0)
(0.0530679 -0.228745 0)
(-0.022143 0.0255894 0)
(-0.0167818 0.0222141 0)
(0.00801712 0.0344544 0)
(0.0332687 0.0354532 0)
(0.0545018 0.0348927 0)
(0.0757546 0.0302521 0)
(0.0881777 0.0255689 0)
(0.100679 0.0193965 0)
(0.105763 0.0163319 0)
(0.111355 0.012362 0)
(0.112255 0.0106287 0)
(0.113378 0.00712923 0)
(0.111152 0.00547887 0)
(0.108266 0.00236223 0)
(0.100594 0.000330737 0)
(0.0936347 -0.00336626 0)
(0.0757583 -0.00986746 0)
(0.0711643 -0.0352134 0)
(0.0525301 -0.107916 0)
(0.0776645 -0.180898 0)
(0.0378643 0.034153 0)
(0.0427305 0.022131 0)
(0.0617912 0.0189423 0)
(0.0932603 0.0176093 0)
(0.114409 0.0186074 0)
(0.141697 0.0167203 0)
(0.159673 0.0162791 0)
(0.181169 0.0137805 0)
(0.194265 0.0134608 0)
(0.209531 0.0114326 0)
(0.218381 0.0114533 0)
(0.229325 0.00959985 0)
(0.235596 0.00981581 0)
(0.243065 0.00800967 0)
(0.247184 0.00853636 0)
(0.250954 0.00647795 0)
(0.248215 0.00494246 0)
(0.236703 -0.00195342 0)
(0.199917 -0.0142406 0)
(0.148055 -0.0343108 0)
)
;

boundaryField
{
    movingWall
    {
        type            fixedValue;
        value           uniform (1 0 0);
    }
    fixedWalls
    {
        type            noSlip;
    }
    frontAndBack
    {
        type            empty;
    }
}


// ************************************************************************* //
