/*--------------------------------*- C++ -*----------------------------------*\
| =========                 |                                                 |
| \\      /  F ield         | OpenFOAM: The Open Source CFD Toolbox           |
|  \\    /   O peration     | Version:  5.0                                   |
|   \\  /    A nd           | Web:      www.OpenFOAM.org                      |
|    \\/     M anipulation  |                                                 |
\*---------------------------------------------------------------------------*/
FoamFile
{
    version     2.0;
    format      ascii;
    class       volScalarField;
    location    "5.5";
    object      yPlus;
}
// * * * * * * * * * * * * * * * * * * * * * * * * * * * * * * * * * * * * * //

dimensions      [0 0 0 0 0 0 0];

internalField   uniform 0;

boundaryField
{
    movingWall
    {
        type            calculated;
        value           nonuniform List<scalar> 
20
(
15.514
15.472
15.3167
15.0575
14.8811
14.6498
14.4956
14.3086
14.1937
14.0584
13.9795
13.8811
13.8245
13.7566
13.7192
13.6846
13.7095
13.8139
14.144
14.6
)
;
    }
    fixedWalls
    {
        type            calculated;
        value           nonuniform List<scalar> 
60
(
0.983302
1.17155
1.41425
2.71004
3.53215
4.2096
4.68475
4.95224
5.10103
5.09178
5.00475
4.78981
4.50961
4.00095
3.47526
2.39547
1.57303
2.04187
2.9086
3.57042
1.81015
3.80263
5.25229
5.92876
6.5174
6.8585
7.17991
7.36438
7.5491
7.64146
7.73023
7.76464
7.78638
7.77427
7.7774
7.75934
7.76756
7.66192
7.01543
6.16398
0.983302
1.28605
0.634755
1.86595
3.55221
4.58346
5.19804
5.6805
5.98037
6.23304
6.37707
6.47577
6.5106
6.47831
6.3172
6.04738
5.56756
4.86439
3.82316
1.81015
)
;
    }
    frontAndBack
    {
        type            empty;
    }
}


// ************************************************************************* //
