/*--------------------------------*- C++ -*----------------------------------*\
| =========                 |                                                 |
| \\      /  F ield         | OpenFOAM: The Open Source CFD Toolbox           |
|  \\    /   O peration     | Version:  5.0                                   |
|   \\  /    A nd           | Web:      www.OpenFOAM.org                      |
|    \\/     M anipulation  |                                                 |
\*---------------------------------------------------------------------------*/
FoamFile
{
    version     2.0;
    format      ascii;
    class       volScalarField;
    location    "2";
    object      k;
}
// * * * * * * * * * * * * * * * * * * * * * * * * * * * * * * * * * * * * * //

dimensions      [0 2 -2 0 0 0 0];

internalField   nonuniform List<scalar> 
400
(
2.8821e-08
2.59765e-07
4.09367e-07
4.23772e-07
3.997e-07
3.6287e-07
3.31846e-07
3.06142e-07
2.77382e-07
2.57009e-07
2.96653e-07
5.72245e-07
1.29904e-06
2.54107e-06
4.39277e-06
7.01676e-06
7.95582e-06
6.61089e-06
2.14255e-06
6.35037e-07
3.77081e-07
5.67527e-06
8.57196e-06
8.53173e-06
7.63811e-06
6.43882e-06
5.19163e-06
3.8064e-06
2.50706e-06
2.22254e-06
3.42024e-06
8.71639e-06
2.12174e-05
4.14418e-05
6.07541e-05
6.94625e-05
7.1605e-05
4.71719e-05
1.54966e-05
4.47916e-06
1.71428e-06
2.65091e-05
4.11374e-05
4.09284e-05
3.59499e-05
2.9519e-05
2.27999e-05
1.5419e-05
9.87715e-06
9.08051e-06
1.48922e-05
3.78785e-05
8.87112e-05
0.000161751
0.000204341
0.000222215
0.000222354
0.000154264
5.54721e-05
1.3361e-05
4.40781e-06
6.78105e-05
0.000117051
0.000121824
0.00011145
9.27783e-05
7.03094e-05
4.44844e-05
2.66902e-05
2.48989e-05
4.39861e-05
0.000103074
0.000198736
0.000274304
0.000308854
0.000354075
0.000393653
0.000354694
0.000157397
2.42556e-05
7.12815e-06
0.000107966
0.000199009
0.000219835
0.00021694
0.000197367
0.000159531
9.80889e-05
5.33301e-05
4.83252e-05
7.29849e-05
0.000143891
0.000228734
0.000266433
0.000281451
0.000326078
0.000450562
0.000503229
0.000313867
3.45966e-05
9.14235e-06
0.000139662
0.000267348
0.000309
0.000316296
0.000304658
0.000266142
0.000184352
8.67291e-05
6.38105e-05
7.90839e-05
0.000140464
0.000198921
0.000198229
0.00017304
0.000187073
0.000412489
0.00060189
0.000465534
4.43143e-05
1.01896e-05
0.000160837
0.000317919
0.000379895
0.000400644
0.000399974
0.000374275
0.000303036
0.000168644
8.68107e-05
7.9031e-05
0.000114338
0.000158773
0.000151301
0.00011669
0.000129542
0.000325445
0.000727698
0.000623565
5.35683e-05
1.02507e-05
0.00017212
0.000351118
0.000430173
0.000465645
0.000476476
0.000467304
0.00042211
0.000316744
0.000156881
9.31509e-05
9.2346e-05
0.000103459
0.000106489
9.96547e-05
0.000116429
0.00029668
0.000846097
0.000755763
6.18279e-05
9.75072e-06
0.000172936
0.000369666
0.000462315
0.000509569
0.000533164
0.00053788
0.000518591
0.000456896
0.00033415
0.000169709
0.000110808
0.000102151
9.53986e-05
9.87893e-05
0.000132258
0.0003407
0.000963706
0.000886665
7.01223e-05
8.83811e-06
0.000170336
0.000375476
0.00047999
0.000536308
0.000569812
0.000586411
0.000585175
0.000557822
0.000491645
0.000373104
0.000222863
0.000153532
0.000128164
0.000137605
0.000197278
0.000477377
0.00112147
0.000982191
7.78048e-05
7.89994e-06
0.000163907
0.0003739
0.000486499
0.000550396
0.000590559
0.000615798
0.000626818
0.000619449
0.00059034
0.000529313
0.000432974
0.000326058
0.000253162
0.000245238
0.000313206
0.000612179
0.00122307
0.001059
8.64736e-05
7.1201e-06
0.000155814
0.000368533
0.000486181
0.00055531
0.000600118
0.000630626
0.000649267
0.000653585
0.00064307
0.000613757
0.000558443
0.0004869
0.000421606
0.000380898
0.000447353
0.000736841
0.00129813
0.00114143
9.67106e-05
6.62806e-06
0.000148029
0.000360275
0.000483416
0.00055553
0.000603078
0.000636399
0.000658994
0.000669863
0.000667295
0.000652613
0.000619369
0.000568824
0.000512538
0.000466412
0.000527371
0.000792103
0.00133522
0.00118571
0.000107863
6.62827e-06
0.000145031
0.000355132
0.00047989
0.000554743
0.000603835
0.000638322
0.000662372
0.000675801
0.000676248
0.000667116
0.000643178
0.000602325
0.000551623
0.000507281
0.000563059
0.000805507
0.00134896
0.00122009
0.000123072
6.97847e-06
0.000145764
0.000355429
0.000480165
0.000555536
0.000605477
0.000640663
0.00066521
0.000679317
0.000680853
0.000673071
0.000652069
0.000614898
0.000567366
0.000527532
0.000578297
0.000798788
0.00135054
0.00122234
0.000140823
8.16069e-06
0.000150477
0.000360011
0.000484039
0.000560146
0.00061152
0.000648215
0.000674402
0.000690354
0.000694659
0.000689428
0.000673198
0.000642804
0.000603013
0.000570162
0.000610561
0.000796538
0.00133403
0.00112826
0.000164531
1.01767e-05
0.00016223
0.000373204
0.000497363
0.000577214
0.00063528
0.000679575
0.000714963
0.000740435
0.000757153
0.00076358
0.000762124
0.00075283
0.000735954
0.000723876
0.000760275
0.000915193
0.00136231
0.00107064
0.000175608
1.5625e-05
0.000189969
0.000409741
0.000548304
0.000653083
0.000745343
0.000822908
0.000899043
0.000960875
0.00102385
0.00107128
0.00112244
0.00116334
0.00121046
0.00124614
0.0013023
0.00142617
0.00160405
0.000965283
0.000179559
2.60456e-05
0.00024535
0.000568475
0.000854903
0.00109016
0.00133716
0.00152916
0.00175547
0.00191491
0.00211941
0.00225408
0.00243925
0.00256525
0.00273704
0.00285994
0.00292378
0.00276442
0.00208713
0.0007289
0.00017955
1.26409e-05
4.21603e-05
0.000104617
0.000165458
0.000213302
0.000256678
0.000291814
0.000321886
0.000352437
0.000373041
0.000402033
0.000415343
0.000442519
0.000451925
0.000474029
0.000464891
0.000430905
0.000366771
0.000291886
0.000155415
)
;

boundaryField
{
    movingWall
    {
        type            kqRWallFunction;
        value           nonuniform List<scalar> 
20
(
1.26409e-05
4.21603e-05
0.000104617
0.000165458
0.000213302
0.000256678
0.000291814
0.000321886
0.000352437
0.000373041
0.000402033
0.000415343
0.000442519
0.000451925
0.000474029
0.000464891
0.000430905
0.000366771
0.000291886
0.000155415
)
;
    }
    fixedWalls
    {
        type            kqRWallFunction;
        value           nonuniform List<scalar> 
60
(
2.8821e-08
3.77081e-07
1.71428e-06
4.40781e-06
7.12815e-06
9.14235e-06
1.01896e-05
1.02507e-05
9.75072e-06
8.83811e-06
7.89994e-06
7.1201e-06
6.62806e-06
6.62827e-06
6.97847e-06
8.16069e-06
1.01767e-05
1.5625e-05
2.60456e-05
1.26409e-05
6.35037e-07
4.47916e-06
1.3361e-05
2.42556e-05
3.45966e-05
4.43143e-05
5.35683e-05
6.18279e-05
7.01223e-05
7.78048e-05
8.64736e-05
9.67106e-05
0.000107863
0.000123072
0.000140823
0.000164531
0.000175608
0.000179559
0.00017955
0.000155415
2.8821e-08
2.59765e-07
4.09367e-07
4.23772e-07
3.997e-07
3.6287e-07
3.31846e-07
3.06142e-07
2.77382e-07
2.57009e-07
2.96653e-07
5.72245e-07
1.29904e-06
2.54107e-06
4.39277e-06
7.01676e-06
7.95582e-06
6.61089e-06
2.14255e-06
6.35037e-07
)
;
    }
    frontAndBack
    {
        type            empty;
    }
}


// ************************************************************************* //
