/*--------------------------------*- C++ -*----------------------------------*\
| =========                 |                                                 |
| \\      /  F ield         | OpenFOAM: The Open Source CFD Toolbox           |
|  \\    /   O peration     | Version:  5.0                                   |
|   \\  /    A nd           | Web:      www.OpenFOAM.org                      |
|    \\/     M anipulation  |                                                 |
\*---------------------------------------------------------------------------*/
FoamFile
{
    version     2.0;
    format      ascii;
    class       volScalarField;
    location    "2";
    object      nut;
}
// * * * * * * * * * * * * * * * * * * * * * * * * * * * * * * * * * * * * * //

dimensions      [0 2 -1 0 0 0 0];

internalField   nonuniform List<scalar> 
400
(
2.25164e-10
2.02941e-09
3.19818e-09
3.31072e-09
3.12266e-09
2.83492e-09
2.59255e-09
2.39173e-09
2.16705e-09
2.00788e-09
2.3176e-09
4.47067e-09
1.01488e-08
1.98521e-08
3.43185e-08
5.48184e-08
6.21549e-08
5.16476e-08
1.67387e-08
4.96123e-09
2.94595e-09
1.51726e-07
2.46497e-07
2.36762e-07
2.04429e-07
1.62791e-07
1.20138e-07
7.82103e-08
4.51828e-08
3.66942e-08
5.50706e-08
1.49695e-07
4.45694e-07
9.93034e-07
1.52761e-06
1.60098e-06
1.42802e-06
7.74661e-07
1.83031e-07
3.49935e-08
1.33928e-08
1.08911e-06
2.25126e-06
2.14759e-06
1.74729e-06
1.30156e-06
8.87182e-07
5.21819e-07
2.91062e-07
2.50263e-07
4.06889e-07
1.1252e-06
2.91183e-06
5.47154e-06
6.74756e-06
6.62126e-06
5.53027e-06
2.88901e-06
6.76351e-07
1.04382e-07
3.4436e-08
3.18719e-06
8.74917e-06
9.05544e-06
7.53051e-06
5.56984e-06
3.6629e-06
1.98952e-06
1.02259e-06
8.9098e-07
1.5731e-06
4.02686e-06
8.95016e-06
1.32504e-05
1.52521e-05
1.63719e-05
1.4814e-05
9.17614e-06
2.24025e-06
1.89497e-07
5.56887e-08
5.31217e-06
1.77306e-05
2.03572e-05
1.84579e-05
1.48171e-05
1.02825e-05
5.31759e-06
2.4052e-06
2.01736e-06
3.06215e-06
6.77039e-06
1.28147e-05
1.60393e-05
1.72119e-05
1.88725e-05
2.19677e-05
1.66958e-05
5.14962e-06
2.70286e-07
7.14246e-08
6.92817e-06
2.63268e-05
3.32225e-05
3.21433e-05
2.75383e-05
2.06593e-05
1.18607e-05
4.48516e-06
2.96837e-06
3.67984e-06
7.24374e-06
1.22644e-05
1.30048e-05
1.14387e-05
1.19065e-05
2.30731e-05
2.37764e-05
8.81996e-06
3.46206e-07
7.96063e-08
7.92916e-06
3.30697e-05
4.53496e-05
4.67766e-05
4.24277e-05
3.46117e-05
2.34163e-05
1.03875e-05
4.43924e-06
3.92958e-06
6.06695e-06
9.719e-06
1.00323e-05
7.81741e-06
8.43296e-06
1.9121e-05
3.1353e-05
1.31648e-05
4.18502e-07
8.00837e-08
8.34434e-06
3.73884e-05
5.53201e-05
6.03923e-05
5.77865e-05
5.06707e-05
3.92575e-05
2.41188e-05
9.56954e-06
4.99444e-06
5.02301e-06
6.12167e-06
6.80567e-06
6.46255e-06
7.39014e-06
1.75308e-05
3.74442e-05
1.67337e-05
4.8303e-07
7.61775e-08
8.19135e-06
3.94161e-05
6.24456e-05
7.14096e-05
7.19299e-05
6.67413e-05
5.70153e-05
4.2746e-05
2.56604e-05
1.08466e-05
6.44582e-06
6.09348e-06
5.91967e-06
6.22985e-06
8.23523e-06
1.97425e-05
4.27758e-05
2.00094e-05
5.4783e-07
6.90477e-08
7.87657e-06
3.98e-05
6.67183e-05
7.94446e-05
8.33257e-05
8.09686e-05
7.38315e-05
6.22521e-05
4.69956e-05
3.0098e-05
1.55253e-05
9.89968e-06
8.23337e-06
8.84721e-06
1.23829e-05
2.75695e-05
4.86956e-05
2.20136e-05
6.0785e-07
6.17183e-08
7.41079e-06
3.90424e-05
6.84848e-05
8.46775e-05
9.1515e-05
9.21388e-05
8.79227e-05
7.93761e-05
6.73873e-05
5.28234e-05
3.77871e-05
2.54863e-05
1.85534e-05
1.75451e-05
2.12772e-05
3.69739e-05
5.27097e-05
2.31147e-05
6.75575e-07
5.56258e-08
6.91825e-06
3.78476e-05
6.86202e-05
8.74546e-05
9.67899e-05
9.99211e-05
9.84623e-05
9.27859e-05
8.38385e-05
7.23056e-05
5.90654e-05
4.64417e-05
3.69528e-05
3.16015e-05
3.40825e-05
4.72366e-05
5.57943e-05
2.45628e-05
7.55552e-07
5.17817e-08
6.48281e-06
3.65028e-05
6.81727e-05
8.86504e-05
9.9865e-05
0.000104838
0.000105613
0.000102327
9.57352e-05
8.68031e-05
7.57586e-05
6.38232e-05
5.29752e-05
4.48287e-05
4.51804e-05
5.41842e-05
5.77247e-05
2.53781e-05
8.42682e-07
5.17834e-08
6.36288e-06
3.58222e-05
6.75959e-05
8.91593e-05
0.000101635
0.000107894
0.000110151
0.000108648
0.00010383
9.68339e-05
8.75729e-05
7.65408e-05
6.52392e-05
5.56708e-05
5.40952e-05
5.97609e-05
6.03397e-05
2.70354e-05
9.61501e-07
5.45193e-08
6.43635e-06
3.59346e-05
6.76471e-05
8.93433e-05
0.000102259
0.000109198
0.000112289
0.000112053
0.000108722
0.000103327
9.56433e-05
8.56322e-05
7.45494e-05
6.46354e-05
6.16184e-05
6.42083e-05
6.24654e-05
2.75294e-05
1.10018e-06
6.37554e-08
6.77758e-06
3.68199e-05
6.80866e-05
8.93636e-05
0.000102028
0.000108902
0.000112135
0.000112286
0.000109716
0.0001052
9.8756e-05
9.04544e-05
8.10166e-05
7.22549e-05
6.81864e-05
6.6453e-05
6.27118e-05
2.54881e-05
1.2854e-06
7.95058e-08
7.56351e-06
3.84983e-05
6.81798e-05
8.72384e-05
9.81522e-05
0.000103994
0.000106749
0.000107161
0.000105697
0.000102705
9.83261e-05
9.29e-05
8.62344e-05
7.99697e-05
7.49052e-05
6.98358e-05
6.12389e-05
2.30027e-05
1.37194e-06
1.2207e-07
9.3316e-06
3.93774e-05
6.2338e-05
7.49656e-05
8.20278e-05
8.56818e-05
8.78462e-05
8.88576e-05
8.91915e-05
8.87708e-05
8.78213e-05
8.65038e-05
8.44932e-05
8.218e-05
7.86513e-05
7.24484e-05
5.51351e-05
1.75429e-05
1.40281e-06
2.03482e-07
9.88741e-06
2.93492e-05
4.12685e-05
4.81967e-05
5.37621e-05
5.72899e-05
6.092e-05
6.32251e-05
6.58681e-05
6.75576e-05
6.9403e-05
7.08463e-05
7.19092e-05
7.3032e-05
7.15892e-05
6.23575e-05
3.75672e-05
8.81742e-06
1.40274e-06
9.8757e-08
3.29377e-07
8.17321e-07
1.29264e-06
1.66643e-06
2.0053e-06
2.27979e-06
2.51474e-06
2.75341e-06
2.91439e-06
3.14088e-06
3.24487e-06
3.45718e-06
3.53067e-06
3.70335e-06
3.63196e-06
3.36645e-06
2.8654e-06
2.28036e-06
1.21418e-06
)
;

boundaryField
{
    movingWall
    {
        type            nutkWallFunction;
        Cmu             0.09;
        kappa           0.41;
        E               9.8;
        value           uniform 0;
    }
    fixedWalls
    {
        type            nutkWallFunction;
        Cmu             0.09;
        kappa           0.41;
        E               9.8;
        value           uniform 0;
    }
    frontAndBack
    {
        type            empty;
    }
}


// ************************************************************************* //
