/*--------------------------------*- C++ -*----------------------------------*\
| =========                 |                                                 |
| \\      /  F ield         | OpenFOAM: The Open Source CFD Toolbox           |
|  \\    /   O peration     | Version:  5.0                                   |
|   \\  /    A nd           | Web:      www.OpenFOAM.org                      |
|    \\/     M anipulation  |                                                 |
\*---------------------------------------------------------------------------*/
FoamFile
{
    version     2.0;
    format      ascii;
    class       volScalarField;
    location    "2";
    object      omega;
}
// * * * * * * * * * * * * * * * * * * * * * * * * * * * * * * * * * * * * * //

dimensions      [0 0 -1 0 0 0 0];

internalField   nonuniform List<scalar> 
400
(
128
128
128
128
128
128
128
128
128
128
128
128
128
128
128
128
128
128
128
128
128
37.4047
34.7751
36.0351
37.3631
39.5526
43.2139
48.6687
55.487
60.5691
62.1064
58.2276
47.6052
41.7326
39.7707
43.3875
50.143
60.8935
84.6665
128
128
24.3401
18.273
19.0578
20.5747
22.6796
25.6993
29.5486
33.9349
36.284
36.6001
33.6637
30.4658
29.5623
30.2837
33.5608
40.2067
53.3969
82.0167
128
128
21.276
13.3785
13.4531
14.7998
16.6573
19.195
22.3594
26.1005
27.9455
27.9614
25.5967
22.2048
20.7015
20.2499
21.627
26.573
38.6539
70.2585
128
128
20.3243
11.224
10.7989
11.7533
13.3202
15.5148
18.4461
22.1728
23.9547
23.8345
21.2529
17.8493
16.6113
16.3521
17.278
20.5103
30.141
60.9496
128
128
20.1586
10.155
9.30091
9.84018
11.063
12.8824
15.5431
19.3369
21.4968
21.4911
19.3911
16.2194
15.2428
15.1276
15.7119
17.8775
25.3146
52.7819
128
128
20.2843
9.61362
8.37701
8.56506
9.4272
10.8136
12.9412
16.2353
19.5553
20.1118
18.846
16.3364
15.0813
14.9269
15.3613
17.0203
23.2098
47.3659
128
128
20.6271
9.39109
7.77607
7.71034
8.24546
9.22237
10.7523
13.1327
16.3938
18.6509
18.3846
16.9005
15.6471
15.4203
15.7547
16.9234
22.5962
45.1641
128
128
21.112
9.37854
7.40349
7.13586
7.41227
8.05917
9.09566
10.6886
13.022
15.6463
17.1907
16.764
16.1155
15.8574
16.06
17.2572
22.5292
44.3125
128
128
21.6257
9.43407
7.19428
6.75071
6.83837
7.24245
7.92582
8.96069
10.4615
12.3963
14.3548
15.5088
15.5664
15.5535
15.9315
17.3154
23.0302
44.6174
128
128
22.1173
9.57677
7.10375
6.49991
6.45314
6.68337
7.12919
7.80398
8.76041
10.0204
11.4583
12.7934
13.6451
13.9776
14.7203
16.5571
23.2039
45.815
128
128
22.5222
9.73727
7.08511
6.34969
6.20021
6.31125
6.59406
7.04401
7.67034
8.48837
9.45466
10.4841
11.4093
12.0532
13.1256
15.599
23.2664
46.4698
128
128
22.8341
9.8698
7.09105
6.26652
6.03894
6.07031
6.23973
6.54628
6.97022
7.51831
8.17556
8.9125
9.67507
10.4043
11.6726
14.6187
23.1308
46.7218
128
128
22.7932
9.91374
7.0994
6.22193
5.94119
5.91618
6.01331
6.22011
6.51303
6.88928
7.34448
7.86934
8.45539
9.11217
10.4087
13.4788
22.356
45.1294
128
128
22.647
9.891
7.09808
6.21799
5.92102
5.867
5.92408
6.06247
6.26232
6.51398
6.81772
7.18069
7.61061
8.16165
9.38514
12.4406
21.6206
44.4013
128
128
22.2022
9.77762
7.10917
6.26817
5.99367
5.95227
6.01421
6.14815
6.33141
6.55347
6.81678
7.1064
7.44308
7.89098
8.95429
11.9865
21.2724
44.2662
128
128
21.4491
9.69404
7.29487
6.61651
6.4724
6.53478
6.6976
6.90954
7.16346
7.43472
7.75098
8.10366
8.53434
9.05188
10.1498
13.1049
22.2459
46.5443
128
128
20.3576
10.4055
8.79567
8.71176
9.08648
9.60424
10.2343
10.8136
11.4792
12.068
12.781
13.4485
14.3262
15.1635
16.5579
19.6853
29.093
55.0241
128
128
24.8144
19.3694
20.7156
22.619
24.8717
26.6916
28.816
30.2873
32.1766
33.3653
35.1462
36.2087
38.0625
39.1601
40.8411
44.3318
55.5572
82.666
128
128
128
128
128
128
128
128
128
128
128
128
128
128
128
128
128
128
128
128
128
)
;

boundaryField
{
    movingWall
    {
        Cmu             0.09;
        kappa           0.41;
        E               9.8;
        beta1           0.075;
        blended         false;
        type            omegaWallFunction;
        value           nonuniform List<scalar> 
20
(
128
128
128
128
128
128
128
128
128
128
128
128
128
128
128
128
128
128
128
128
)
;
    }
    fixedWalls
    {
        Cmu             0.09;
        kappa           0.41;
        E               9.8;
        beta1           0.075;
        blended         false;
        type            omegaWallFunction;
        value           nonuniform List<scalar> 
60
(
128
128
128
128
128
128
128
128
128
128
128
128
128
128
128
128
128
128
128
128
128
128
128
128
128
128
128
128
128
128
128
128
128
128
128
128
128
128
128
128
128
128
128
128
128
128
128
128
128
128
128
128
128
128
128
128
128
128
128
128
)
;
    }
    frontAndBack
    {
        type            empty;
    }
}


// ************************************************************************* //
