/*--------------------------------*- C++ -*----------------------------------*\
| =========                 |                                                 |
| \\      /  F ield         | OpenFOAM: The Open Source CFD Toolbox           |
|  \\    /   O peration     | Version:  5.0                                   |
|   \\  /    A nd           | Web:      www.OpenFOAM.org                      |
|    \\/     M anipulation  |                                                 |
\*---------------------------------------------------------------------------*/
FoamFile
{
    version     2.0;
    format      ascii;
    class       volScalarField;
    location    "2";
    object      p;
}
// * * * * * * * * * * * * * * * * * * * * * * * * * * * * * * * * * * * * * //

dimensions      [0 2 -2 0 0 0 0];

internalField   nonuniform List<scalar> 
400
(
9.39618e-08
-2.0358e-07
-1.55411e-06
-1.03229e-05
-3.58185e-05
-8.5256e-05
-0.000162045
-0.000259905
-0.000359844
-0.000454383
-0.000596579
-0.000863024
-0.00117433
-0.00107728
-0.000318725
0.00116484
0.00322984
0.00545521
0.00697706
0.007358
3.76795e-06
7.18426e-06
1.25142e-05
1.26202e-05
-3.06005e-06
-4.39891e-05
-0.000120092
-0.000236787
-0.00039247
-0.00060702
-0.000964703
-0.00150375
-0.00197111
-0.00190795
-0.00116333
0.000201848
0.00213412
0.00426771
0.00608041
0.00702804
-1.92788e-05
-1.61811e-05
-9.83764e-06
-5.51631e-06
-1.44852e-05
-4.98527e-05
-0.000130343
-0.000278432
-0.000524841
-0.000953369
-0.0016935
-0.00265539
-0.00345294
-0.00359741
-0.00297966
-0.00173041
-1.26107e-05
0.00202163
0.0041478
0.00546091
-7.35087e-05
-7.61289e-05
-7.73311e-05
-7.78539e-05
-8.93806e-05
-0.000130201
-0.000228713
-0.000428738
-0.000796815
-0.00146137
-0.00258306
-0.00403104
-0.0052863
-0.00556573
-0.0049478
-0.00377861
-0.00224455
-0.000456676
0.00150728
0.00290446
-0.000162859
-0.000174273
-0.00019118
-0.000207428
-0.000234692
-0.000296664
-0.000428503
-0.000692084
-0.00119309
-0.00206878
-0.00349385
-0.00526744
-0.00675672
-0.00716672
-0.0066675
-0.00553437
-0.00411125
-0.00256715
-0.00104954
0.0002938
-0.000285316
-0.000305591
-0.000341754
-0.000381084
-0.000434004
-0.000528712
-0.00070277
-0.00101818
-0.00161083
-0.00262226
-0.00414865
-0.00604771
-0.00772302
-0.00834749
-0.00798584
-0.00689759
-0.00553288
-0.00418338
-0.00297023
-0.00182302
-0.000432766
-0.000459401
-0.000512237
-0.000574977
-0.000655481
-0.000783308
-0.000996403
-0.00134834
-0.00193392
-0.00294541
-0.00441477
-0.00622638
-0.00793431
-0.00870407
-0.00846205
-0.00741399
-0.00614226
-0.00498929
-0.00409001
-0.00312899
-0.000593218
-0.000622766
-0.000685645
-0.00076536
-0.00086709
-0.00101748
-0.0012504
-0.00160972
-0.0021549
-0.00302003
-0.00427064
-0.00579177
-0.00726254
-0.00802275
-0.00788271
-0.00697547
-0.00594604
-0.00505038
-0.00450104
-0.00373577
-0.000754616
-0.000784057
-0.000849363
-0.00093645
-0.00104844
-0.00120637
-0.00143723
-0.00177345
-0.00224461
-0.00292194
-0.00384242
-0.00491737
-0.00592261
-0.00646879
-0.00644482
-0.00589576
-0.00522515
-0.00463734
-0.00444093
-0.00380374
-0.000907521
-0.000934741
-0.00099599
-0.00108121
-0.00119236
-0.00134359
-0.00155524
-0.00184604
-0.00223386
-0.0027363
-0.00335502
-0.00403605
-0.00465353
-0.00500331
-0.00502366
-0.00473518
-0.00438419
-0.00405396
-0.0041055
-0.00359177
-0.00104636
-0.00106955
-0.00112227
-0.00119862
-0.00130142
-0.00143438
-0.00162065
-0.00186338
-0.00216979
-0.00253866
-0.00295569
-0.00337972
-0.00375356
-0.00396358
-0.00397621
-0.00382903
-0.0036865
-0.00347912
-0.00370422
-0.00321162
-0.00116924
-0.00118676
-0.00122771
-0.00128978
-0.00137655
-0.00149389
-0.00165028
-0.00184888
-0.00208987
-0.0023662
-0.00266087
-0.002941
-0.00317111
-0.00329302
-0.00329283
-0.00320844
-0.00317015
-0.00294094
-0.00333839
-0.00278876
-0.00127653
-0.0012868
-0.00131366
-0.00135916
-0.00142839
-0.00152594
-0.00165539
-0.00181756
-0.00200999
-0.00222418
-0.00244441
-0.00264582
-0.00280255
-0.00288121
-0.00287555
-0.00281301
-0.00283028
-0.00248573
-0.00312361
-0.00226726
-0.00137044
-0.00137006
-0.00138173
-0.00140994
-0.00146064
-0.00153811
-0.00164407
-0.00177771
-0.00193531
-0.00210829
-0.00228264
-0.00243889
-0.00255641
-0.00261406
-0.00261188
-0.00256173
-0.00260797
-0.00211511
-0.00298699
-0.00159656
-0.00145585
-0.00143979
-0.00143439
-0.00144424
-0.0014761
-0.00153457
-0.00162079
-0.00173292
-0.00186661
-0.00201348
-0.00216092
-0.00229264
-0.00239125
-0.0024393
-0.00244144
-0.00239883
-0.00244195
-0.00182043
-0.00280447
-0.000769611
-0.0015426
-0.00150299
-0.00147555
-0.00146442
-0.00147605
-0.00151625
-0.00158611
-0.00168274
-0.00180146
-0.00193395
-0.0020689
-0.00218969
-0.00228118
-0.00232855
-0.00233317
-0.00228646
-0.00228081
-0.00158939
-0.00240941
0.000309228
-0.00164995
-0.00156096
-0.00150542
-0.00146764
-0.00145707
-0.00147969
-0.00153668
-0.00162355
-0.00173536
-0.00186182
-0.00199253
-0.00211237
-0.00220835
-0.0022629
-0.0022648
-0.00218588
-0.00206634
-0.00129804
-0.0015731
0.00188975
-0.00182468
-0.00162229
-0.00153684
-0.00144715
-0.00140855
-0.00141467
-0.00146323
-0.00154533
-0.00165702
-0.00178485
-0.0019211
-0.00204807
-0.00215614
-0.00221814
-0.00221615
-0.00206911
-0.00175798
-0.000696301
0.000177615
0.00528026
-0.00218882
-0.00171412
-0.00153961
-0.00136846
-0.00129748
-0.00128921
-0.00133481
-0.00141444
-0.001531
-0.00166079
-0.00180895
-0.00194182
-0.00206689
-0.00213308
-0.00214106
-0.0019617
-0.00142785
0.000587202
0.00447765
0.0144704
-0.00302431
-0.000833273
-0.00063877
-0.000662456
-0.000685617
-0.000729618
-0.000815622
-0.000942687
-0.00109754
-0.00127172
-0.00144945
-0.00162582
-0.00177389
-0.00187464
-0.00184503
-0.00157635
-0.000289081
0.00391177
0.0141114
0.0317131
)
;

boundaryField
{
    movingWall
    {
        type            zeroGradient;
    }
    fixedWalls
    {
        type            zeroGradient;
    }
    frontAndBack
    {
        type            empty;
    }
}


// ************************************************************************* //
