/*--------------------------------*- C++ -*----------------------------------*\
| =========                 |                                                 |
| \\      /  F ield         | OpenFOAM: The Open Source CFD Toolbox           |
|  \\    /   O peration     | Version:  5.0                                   |
|   \\  /    A nd           | Web:      www.OpenFOAM.org                      |
|    \\/     M anipulation  |                                                 |
\*---------------------------------------------------------------------------*/
FoamFile
{
    version     2.0;
    format      ascii;
    class       surfaceScalarField;
    location    "2";
    object      phi;
}
// * * * * * * * * * * * * * * * * * * * * * * * * * * * * * * * * * * * * * //

dimensions      [0 3 -1 0 0 0 0];

internalField   nonuniform List<scalar> 
760
(
-5.27625e-08
5.27533e-08
-1.40019e-07
8.72563e-08
-2.48135e-07
1.08115e-07
-3.62864e-07
1.14729e-07
-4.83137e-07
1.20273e-07
-6.20072e-07
1.36935e-07
-8.00004e-07
1.79932e-07
-1.06995e-06
2.69942e-07
-1.4947e-06
4.24755e-07
-2.13934e-06
6.44637e-07
-3.01435e-06
8.75017e-07
-3.99307e-06
9.78719e-07
-4.81465e-06
8.21573e-07
-5.24909e-06
4.34439e-07
-5.29602e-06
4.69316e-08
-4.86087e-06
-4.35142e-07
-3.96674e-06
-8.94139e-07
-2.57346e-06
-1.39328e-06
-9.31831e-07
-1.64163e-06
-9.31831e-07
-1.0991e-07
1.62664e-07
-2.92588e-07
2.69934e-07
-5.29131e-07
3.44658e-07
-7.97278e-07
3.82876e-07
-1.09232e-06
4.15312e-07
-1.42819e-06
4.7281e-07
-1.83169e-06
5.83431e-07
-2.33855e-06
7.76804e-07
-2.98306e-06
1.06926e-06
-3.77877e-06
1.44035e-06
-4.68172e-06
1.77797e-06
-5.51368e-06
1.81068e-06
-6.04731e-06
1.35521e-06
-6.17551e-06
5.62643e-07
-5.91153e-06
-2.17049e-07
-5.41011e-06
-9.36565e-07
-4.52819e-06
-1.77606e-06
-3.31235e-06
-2.60912e-06
-1.67097e-06
-3.28301e-06
-2.6028e-06
-1.42387e-07
3.05051e-07
-3.62788e-07
4.90334e-07
-6.41242e-07
6.23112e-07
-9.65973e-07
7.07607e-07
-1.33515e-06
7.84485e-07
-1.75738e-06
8.95045e-07
-2.24448e-06
1.07053e-06
-2.81025e-06
1.34258e-06
-3.47165e-06
1.73066e-06
-4.21275e-06
2.18145e-06
-4.93488e-06
2.50009e-06
-5.49798e-06
2.37378e-06
-5.78084e-06
1.63807e-06
-5.71217e-06
4.93974e-07
-5.36543e-06
-5.63792e-07
-4.81125e-06
-1.49075e-06
-4.08912e-06
-2.49818e-06
-3.19112e-06
-3.50712e-06
-1.91977e-06
-4.55436e-06
-4.52257e-06
-1.62052e-07
4.67104e-07
-3.91183e-07
7.19465e-07
-6.59513e-07
8.91442e-07
-9.7222e-07
1.02031e-06
-1.33575e-06
1.14801e-06
-1.75454e-06
1.31384e-06
-2.22902e-06
1.54501e-06
-2.75553e-06
1.86909e-06
-3.3367e-06
2.31183e-06
-3.95026e-06
2.79501e-06
-4.49028e-06
3.04011e-06
-4.82335e-06
2.70685e-06
-4.85628e-06
1.671e-06
-4.66266e-06
3.00354e-07
-4.28848e-06
-9.37968e-07
-3.72682e-06
-2.05241e-06
-3.0976e-06
-3.12741e-06
-2.44692e-06
-4.15779e-06
-1.52877e-06
-5.47252e-06
-6.05134e-06
-1.65836e-07
6.32941e-07
-3.84986e-07
9.38614e-07
-6.20657e-07
1.12711e-06
-8.85304e-07
1.28496e-06
-1.18913e-06
1.45184e-06
-1.53443e-06
1.65914e-06
-1.91648e-06
1.92706e-06
-2.31994e-06
2.27255e-06
-2.73668e-06
2.72856e-06
-3.13745e-06
3.19578e-06
-3.42915e-06
3.33181e-06
-3.59387e-06
2.87157e-06
-3.61942e-06
1.69656e-06
-3.50616e-06
1.87097e-07
-3.2264e-06
-1.21773e-06
-2.75549e-06
-2.52332e-06
-2.28185e-06
-3.60105e-06
-1.84687e-06
-4.59277e-06
-1.18545e-06
-6.13394e-06
-7.23678e-06
-1.52894e-07
7.85835e-07
-3.48308e-07
1.13403e-06
-5.42607e-07
1.32141e-06
-7.45913e-07
1.48827e-06
-9.66115e-07
1.67204e-06
-1.20231e-06
1.89533e-06
-1.4463e-06
2.17105e-06
-1.68279e-06
2.50903e-06
-1.88497e-06
2.93075e-06
-2.01976e-06
3.33057e-06
-2.09638e-06
3.40843e-06
-2.17526e-06
2.95044e-06
-2.23031e-06
1.75161e-06
-2.23711e-06
1.93891e-07
-2.08825e-06
-1.36658e-06
-1.79114e-06
-2.82043e-06
-1.49015e-06
-3.90205e-06
-1.21857e-06
-4.86435e-06
-9.10629e-07
-6.44188e-06
-8.14741e-06
-1.28202e-07
9.14037e-07
-2.90343e-07
1.29617e-06
-4.40746e-07
1.47181e-06
-5.82885e-07
1.63041e-06
-7.19246e-07
1.8084e-06
-8.44699e-07
2.02079e-06
-9.4556e-07
2.27191e-06
-9.98216e-07
2.56169e-06
-9.68472e-07
2.901e-06
-8.67931e-07
3.23003e-06
-7.52996e-07
3.2935e-06
-6.82642e-07
2.88009e-06
-7.15972e-07
1.78494e-06
-7.84055e-07
2.61975e-07
-7.81512e-07
-1.36913e-06
-7.4685e-07
-2.85509e-06
-7.03195e-07
-3.9457e-06
-6.41523e-07
-4.92602e-06
-5.63192e-07
-6.52021e-06
-8.71061e-06
-9.7403e-08
1.01144e-06
-2.21908e-07
1.42068e-06
-3.30152e-07
1.58006e-06
-4.18604e-07
1.71886e-06
-4.84835e-07
1.87463e-06
-5.20688e-07
2.05664e-06
-5.11007e-07
2.26223e-06
-4.31182e-07
2.48186e-06
-2.35967e-07
2.70579e-06
8.30363e-08
2.91103e-06
4.30281e-07
2.94625e-06
7.02103e-07
2.60827e-06
7.73738e-07
1.71331e-06
6.74608e-07
3.61105e-07
5.11313e-07
-1.20583e-06
2.54556e-07
-2.59834e-06
-3.73503e-08
-3.6538e-06
-2.64563e-07
-4.69881e-06
-3.88905e-07
-6.39587e-06
-9.09951e-06
-6.47157e-08
1.07616e-06
-1.52918e-07
1.50888e-06
-2.23507e-07
1.65065e-06
-2.68543e-07
1.76389e-06
-2.82615e-07
1.88871e-06
-2.56659e-07
2.03069e-06
-1.77361e-07
2.18293e-06
-2.49668e-08
2.32947e-06
2.27885e-07
2.45294e-06
6.13506e-07
2.52541e-06
1.0879e-06
2.47186e-06
1.51016e-06
2.18601e-06
1.71621e-06
1.50725e-06
1.64383e-06
4.33486e-07
1.3263e-06
-8.88304e-07
8.6441e-07
-2.13644e-06
3.67115e-07
-3.1565e-06
-1.5863e-08
-4.31583e-06
-2.13557e-07
-6.19818e-06
-9.31307e-06
-3.50353e-08
1.11119e-06
-9.12227e-08
1.56507e-06
-1.30016e-07
1.68944e-06
-1.41912e-07
1.77579e-06
-1.20445e-07
1.86724e-06
-5.73281e-08
1.96757e-06
5.68331e-08
2.06877e-06
2.31703e-07
2.1546e-06
4.82364e-07
2.20228e-06
8.22542e-07
2.18523e-06
1.23479e-06
2.05961e-06
1.6463e-06
1.7745e-06
1.90082e-06
1.25274e-06
1.88433e-06
4.4997e-07
1.57195e-06
-5.75916e-07
1.03114e-06
-1.59564e-06
4.76227e-07
-2.60159e-06
7.82809e-08
-3.91788e-06
-1.60113e-07
-5.95978e-06
-9.47318e-06
-1.16684e-08
1.12286e-06
-4.18523e-08
1.59525e-06
-5.53315e-08
1.70292e-06
-4.29079e-08
1.76337e-06
1.80091e-09
1.82253e-06
8.38363e-08
1.88553e-06
2.09456e-07
1.94315e-06
3.83548e-07
1.98051e-06
6.08055e-07
1.97777e-06
8.80844e-07
1.91244e-06
1.18452e-06
1.75593e-06
1.47957e-06
1.47945e-06
1.6875e-06
1.04481e-06
1.6896e-06
4.47879e-07
1.4231e-06
-3.09416e-07
9.59408e-07
-1.13195e-06
4.74131e-07
-2.11631e-06
1.09768e-07
-3.55352e-06
-1.30939e-07
-5.71908e-06
-9.60412e-06
2.48852e-09
1.12037e-06
-8.38378e-09
1.60612e-06
-2.55e-09
1.69709e-06
2.7197e-08
1.73362e-06
8.54447e-08
1.76428e-06
1.76865e-07
1.79411e-06
3.03598e-07
1.81641e-06
4.65479e-07
1.81863e-06
6.58546e-07
1.7847e-06
8.73771e-07
1.69721e-06
1.09247e-06
1.53723e-06
1.28336e-06
1.28855e-06
1.39459e-06
9.33583e-07
1.36733e-06
4.75137e-07
1.15864e-06
-1.0073e-07
8.07681e-07
-7.80987e-07
4.05728e-07
-1.71436e-06
7.69389e-08
-3.22473e-06
-1.25243e-07
-5.51689e-06
-9.72936e-06
5.6029e-09
1.11477e-06
6.71925e-09
1.60501e-06
2.63465e-08
1.67746e-06
6.83569e-08
1.69161e-06
1.36054e-07
1.69659e-06
2.31609e-07
1.69856e-06
3.54928e-07
1.69309e-06
5.02964e-07
1.67059e-06
6.68908e-07
1.61876e-06
8.41476e-07
1.52465e-06
1.003e-06
1.37571e-06
1.12895e-06
1.1626e-06
1.18556e-06
8.76974e-07
1.13742e-06
5.2327e-07
9.55485e-07
8.12105e-08
6.73034e-07
-4.98536e-07
3.43175e-07
-1.3845e-06
2.29248e-08
-2.90448e-06
-1.62462e-07
-5.33151e-06
-9.89182e-06
-3.7789e-09
1.11855e-06
2.24706e-09
1.59898e-06
3.01104e-08
1.6496e-06
8.19041e-08
1.63982e-06
1.57173e-07
1.62132e-06
2.56083e-07
1.59965e-06
3.7671e-07
1.57247e-06
5.14295e-07
1.53301e-06
6.60809e-07
1.47224e-06
8.04777e-07
1.38068e-06
9.30564e-07
1.24992e-06
1.019e-06
1.07417e-06
1.04765e-06
8.48326e-07
9.94587e-07
5.76329e-07
8.44144e-07
2.31654e-07
6.1211e-07
-2.66502e-07
3.37138e-07
-1.10953e-06
2.69486e-08
-2.59429e-06
-1.06845e-07
-5.19771e-06
-9.99867e-06
-2.37818e-08
1.14233e-06
-2.12547e-08
1.59645e-06
1.17735e-08
1.61657e-06
7.09782e-08
1.58061e-06
1.54637e-07
1.53766e-06
2.59861e-07
1.49442e-06
3.82541e-07
1.44979e-06
5.16735e-07
1.39881e-06
6.53982e-07
1.335e-06
7.83577e-07
1.25108e-06
8.92395e-07
1.14111e-06
9.66637e-07
9.99927e-07
9.88407e-07
8.26556e-07
9.44262e-07
6.20474e-07
8.2322e-07
3.52696e-07
6.34255e-07
-7.75369e-08
3.94115e-07
-8.69389e-07
8.86111e-08
-2.28879e-06
-9.2651e-09
-5.09984e-06
-1.00079e-05
-7.56222e-08
1.21795e-06
-7.48968e-08
1.59573e-06
-3.35836e-08
1.57526e-06
3.96067e-08
1.50742e-06
1.39378e-07
1.43789e-06
2.59516e-07
1.37429e-06
3.93799e-07
1.3155e-06
5.35834e-07
1.25678e-06
6.77326e-07
1.1935e-06
8.09565e-07
1.11884e-06
9.21611e-07
1.02906e-06
1.0006e-06
9.20934e-07
1.03194e-06
7.95223e-07
1.00929e-06
6.43122e-07
9.22347e-07
4.39636e-07
7.74001e-07
7.08092e-08
5.58128e-07
-6.53515e-07
2.80205e-07
-2.01086e-06
1.69054e-07
-4.98869e-06
-9.83888e-06
-1.40759e-07
1.35871e-06
-1.55312e-07
1.61028e-06
-9.94114e-08
1.51935e-06
9.32094e-09
1.39869e-06
1.439e-07
1.30331e-06
2.96753e-07
1.22143e-06
4.60158e-07
1.1521e-06
6.28734e-07
1.0882e-06
7.94101e-07
1.02814e-06
9.48932e-07
9.64013e-07
1.08187e-06
8.96123e-07
1.18396e-06
8.18842e-07
1.24601e-06
7.33169e-07
1.26228e-06
6.26854e-07
1.22055e-06
4.81372e-07
1.11717e-06
1.74183e-07
9.17943e-07
-4.54284e-07
6.6649e-07
-1.75941e-06
4.65309e-07
-4.7875e-06
-9.37357e-06
-3.4945e-07
1.70816e-06
-2.76171e-07
1.537e-06
-1.13408e-07
1.35659e-06
7.61593e-08
1.20912e-06
2.80252e-07
1.09921e-06
4.96607e-07
1.00508e-06
7.17433e-07
9.31273e-07
9.4064e-07
8.64994e-07
1.15658e-06
8.12196e-07
1.36296e-06
7.57633e-07
1.54824e-06
7.10844e-07
1.71085e-06
6.56238e-07
1.83735e-06
6.06667e-07
1.92551e-06
5.38692e-07
1.94501e-06
4.61871e-07
1.8929e-06
2.26291e-07
1.70018e-06
-2.61562e-07
1.42985e-06
-1.48908e-06
1.00716e-06
-4.36481e-06
-8.36641e-06
-4.86491e-07
2.19465e-06
-1.7977e-07
1.23028e-06
2.09665e-07
9.67157e-07
5.87967e-07
8.30821e-07
9.47785e-07
7.39396e-07
1.30302e-06
6.49849e-07
1.64296e-06
5.91328e-07
1.98022e-06
5.27733e-07
2.29439e-06
4.98026e-07
2.60442e-06
4.47604e-07
2.88048e-06
4.34786e-07
3.14986e-06
3.86851e-07
3.37085e-06
3.85679e-07
3.5795e-06
3.30042e-07
3.71697e-06
3.24406e-07
3.77547e-06
1.67789e-07
3.64822e-06
-1.3431e-07
3.2661e-06
-1.10696e-06
2.16255e-06
-3.26126e-06
-6.20387e-06
2.19465e-06
3.42493e-06
4.39209e-06
5.22291e-06
5.9623e-06
6.61215e-06
7.20348e-06
7.73121e-06
8.22924e-06
8.67685e-06
9.11163e-06
9.49848e-06
9.88416e-06
1.02142e-05
1.05386e-05
1.07064e-05
1.05721e-05
9.46513e-06
6.20387e-06
)
;

boundaryField
{
    movingWall
    {
        type            calculated;
        value           uniform 0;
    }
    fixedWalls
    {
        type            calculated;
        value           uniform 0;
    }
    frontAndBack
    {
        type            empty;
        value           nonuniform 0();
    }
}


// ************************************************************************* //
