/*--------------------------------*- C++ -*----------------------------------*\
| =========                 |                                                 |
| \\      /  F ield         | OpenFOAM: The Open Source CFD Toolbox           |
|  \\    /   O peration     | Version:  5.0                                   |
|   \\  /    A nd           | Web:      www.OpenFOAM.org                      |
|    \\/     M anipulation  |                                                 |
\*---------------------------------------------------------------------------*/
FoamFile
{
    version     2.0;
    format      ascii;
    class       volVectorField;
    location    "2";
    object      U;
}
// * * * * * * * * * * * * * * * * * * * * * * * * * * * * * * * * * * * * * //

dimensions      [0 1 -1 0 0 0 0];

internalField   nonuniform List<vector> 
400
(
(-0.000356399 0.000294048 0)
(-0.001777 0.000387772 0)
(-0.00376891 0.00040881 0)
(-0.00604384 0.00036168 0)
(-0.00838054 0.000317247 0)
(-0.0108916 0.000326394 0)
(-0.0139423 0.000511957 0)
(-0.0182219 0.00110526 0)
(-0.0247485 0.0024485 0)
(-0.0348481 0.00493128 0)
(-0.0502977 0.00839492 0)
(-0.0712771 0.0111076 0)
(-0.0923755 0.0105161 0)
(-0.103273 0.00725815 0)
(-0.107108 0.00399121 0)
(-0.103296 -0.0024007 0)
(-0.0866292 -0.00542573 0)
(-0.0646433 -0.0120561 0)
(-0.0340496 -0.0142982 0)
(-0.0067894 -0.00574575 0)
(-0.000711771 0.00197705 0)
(-0.00371395 0.00333539 0)
(-0.00793731 0.00421833 0)
(-0.0130851 0.00458486 0)
(-0.0186856 0.00489972 0)
(-0.0248726 0.00561561 0)
(-0.0321221 0.00722516 0)
(-0.0410818 0.0103045 0)
(-0.0523103 0.0151585 0)
(-0.0663564 0.0213342 0)
(-0.0842609 0.0267446 0)
(-0.105243 0.0275432 0)
(-0.120662 0.0219976 0)
(-0.124945 0.0106667 0)
(-0.121691 -0.0017092 0)
(-0.113201 -0.0143249 0)
(-0.0985005 -0.0293448 0)
(-0.0765189 -0.0428056 0)
(-0.050744 -0.0490356 0)
(-0.0161226 -0.0276242 0)
(-0.000961759 0.00460412 0)
(-0.00479335 0.00755128 0)
(-0.00972074 0.00967677 0)
(-0.0157787 0.010881 0)
(-0.0226831 0.0119296 0)
(-0.0304766 0.0136091 0)
(-0.0394753 0.0165403 0)
(-0.0498807 0.0213273 0)
(-0.0617059 0.0282898 0)
(-0.0755309 0.0367533 0)
(-0.0922914 0.0435359 0)
(-0.108552 0.042585 0)
(-0.116986 0.0298801 0)
(-0.117522 0.00961107 0)
(-0.110369 -0.00870241 0)
(-0.101264 -0.0267066 0)
(-0.0881995 -0.0468513 0)
(-0.0716487 -0.0670692 0)
(-0.0491307 -0.0838148 0)
(-0.0235764 -0.0762359 0)
(-0.00112825 0.00768686 0)
(-0.00545273 0.0121049 0)
(-0.0102742 0.0152391 0)
(-0.0159714 0.0174147 0)
(-0.0226961 0.0194722 0)
(-0.0304154 0.0222563 0)
(-0.0392661 0.026371 0)
(-0.0491582 0.0324079 0)
(-0.0597745 0.0407588 0)
(-0.071529 0.0499308 0)
(-0.0854358 0.0550969 0)
(-0.0976934 0.0497621 0)
(-0.101997 0.0318065 0)
(-0.0960612 0.00747492 0)
(-0.0878995 -0.0158919 0)
(-0.0798737 -0.0362629 0)
(-0.0672027 -0.0576671 0)
(-0.0554229 -0.0794306 0)
(-0.0370507 -0.105135 0)
(-0.0198292 -0.112083 0)
(-0.00114519 0.0109847 0)
(-0.00559498 0.0166062 0)
(-0.00995638 0.0202867 0)
(-0.0147615 0.0232276 0)
(-0.020409 0.0262392 0)
(-0.0268241 0.030026 0)
(-0.0340018 0.0350605 0)
(-0.0417137 0.0417767 0)
(-0.0495997 0.050612 0)
(-0.0577773 0.0600949 0)
(-0.0666042 0.0637948 0)
(-0.0745568 0.0547493 0)
(-0.0760082 0.03228 0)
(-0.0716983 0.00368946 0)
(-0.0662717 -0.0229085 0)
(-0.0587078 -0.0475413 0)
(-0.049184 -0.0692355 0)
(-0.0403702 -0.0896187 0)
(-0.0314769 -0.119676 0)
(-0.0112324 -0.136233 0)
(-0.000999252 0.0141904 0)
(-0.00519398 0.0207742 0)
(-0.00893338 0.0246065 0)
(-0.0126946 0.0279311 0)
(-0.0169022 0.0315245 0)
(-0.0214339 0.0359151 0)
(-0.0261775 0.0414281 0)
(-0.030749 0.0483401 0)
(-0.0350804 0.0573723 0)
(-0.0391197 0.0658888 0)
(-0.0411194 0.0674121 0)
(-0.0458506 0.0578014 0)
(-0.0467881 0.0332835 0)
(-0.0448952 0.00241726 0)
(-0.0426949 -0.0283515 0)
(-0.0369552 -0.0569115 0)
(-0.0319689 -0.0782169 0)
(-0.0259414 -0.0975163 0)
(-0.0233232 -0.128609 0)
(-0.00905417 -0.158017 0)
(-0.000744698 0.0170199 0)
(-0.00439339 0.0243812 0)
(-0.00742243 0.0280757 0)
(-0.0101622 0.0313989 0)
(-0.0129396 0.0350976 0)
(-0.0155636 0.0395453 0)
(-0.0178435 0.0449101 0)
(-0.0193571 0.0512872 0)
(-0.0193639 0.0591355 0)
(-0.0182929 0.0669603 0)
(-0.0165598 0.0681234 0)
(-0.0154552 0.0593802 0)
(-0.0151663 0.0353737 0)
(-0.0150406 0.00425834 0)
(-0.0152558 -0.0282409 0)
(-0.0131448 -0.0582518 0)
(-0.0145896 -0.0796166 0)
(-0.012221 -0.0982461 0)
(-0.0151389 -0.129056 0)
(-0.00421411 -0.168457 0)
(-0.000460179 0.0193003 0)
(-0.00337935 0.0272668 0)
(-0.0056785 0.0306707 0)
(-0.00750666 0.0336956 0)
(-0.00906627 0.0370921 0)
(-0.0101189 0.0411049 0)
(-0.010433 0.0457476 0)
(-0.0096244 0.0509193 0)
(-0.00696754 0.0565777 0)
(-0.00177546 0.0623765 0)
(0.00483519 0.0646154 0)
(0.0111569 0.0574948 0)
(0.0141659 0.0380779 0)
(0.0149265 0.00724944 0)
(0.0123943 -0.0250712 0)
(0.0103992 -0.0532628 0)
(0.00085273 -0.0753708 0)
(-0.00195536 -0.0959308 0)
(-0.0102196 -0.129052 0)
(-0.00273453 -0.177752 0)
(-0.000191037 0.0209459 0)
(-0.00232665 0.0293984 0)
(-0.00393477 0.0324535 0)
(-0.00500056 0.0350038 0)
(-0.00561545 0.0378427 0)
(-0.00554189 0.0411173 0)
(-0.00454917 0.0447269 0)
(-0.00234581 0.0484125 0)
(0.00154725 0.0518806 0)
(0.00788106 0.0546503 0)
(0.0164224 0.0551086 0)
(0.0257107 0.0501861 0)
(0.0318312 0.034935 0)
(0.0345181 0.00999869 0)
(0.0303981 -0.0192399 0)
(0.0253928 -0.0460057 0)
(0.0109252 -0.0665621 0)
(0.00515048 -0.0887148 0)
(-0.00626479 -0.123997 0)
(-0.000209915 -0.181964 0)
(3.654e-05 0.0219498 0)
(-0.00137786 0.0308419 0)
(-0.00237206 0.0335321 0)
(-0.0028306 0.0355398 0)
(-0.00276135 0.0377116 0)
(-0.0019618 0.0401395 0)
(-0.000246485 0.0426661 0)
(0.00258683 0.0449605 0)
(0.00676958 0.0466031 0)
(0.0126196 0.0470145 0)
(0.0200957 0.0450732 0)
(0.0284836 0.0395949 0)
(0.0354922 0.0281173 0)
(0.0390277 0.00918656 0)
(0.0354657 -0.0141998 0)
(0.0294814 -0.0360994 0)
(0.0130181 -0.0564547 0)
(0.0076359 -0.0816659 0)
(-0.00570106 -0.120588 0)
(0.00107275 -0.186701 0)
(0.000197715 0.0224179 0)
(-0.000624837 0.031703 0)
(-0.00110994 0.0340336 0)
(-0.00110284 0.0355019 0)
(-0.000566498 0.0370018 0)
(0.000666454 0.0386205 0)
(0.00272433 0.0401797 0)
(0.00569753 0.041357 0)
(0.00965251 0.041713 0)
(0.0146139 0.0407303 0)
(0.0204047 0.0376604 0)
(0.0266085 0.0317281 0)
(0.0315503 0.0220983 0)
(0.0351638 0.00864437 0)
(0.0321701 -0.00869127 0)
(0.0262436 -0.026821 0)
(0.0120643 -0.0465731 0)
(0.00873364 -0.0743494 0)
(-0.00587326 -0.115951 0)
(0.00235904 -0.189604 0)
(0.000248222 0.0224819 0)
(-0.000137372 0.0320987 0)
(-0.000224723 0.034097 0)
(0.000128162 0.0350535 0)
(0.000983809 0.0359377 0)
(0.00246296 0.0368439 0)
(0.0046344 0.0376079 0)
(0.00751804 0.0379501 0)
(0.0110739 0.0375019 0)
(0.0151869 0.035854 0)
(0.0195868 0.0325249 0)
(0.0238789 0.0270627 0)
(0.0269681 0.0190049 0)
(0.0285411 0.00854972 0)
(0.0261865 -0.00422717 0)
(0.0212824 -0.019182 0)
(0.00970423 -0.038151 0)
(0.00875663 -0.0674984 0)
(-0.00719953 -0.111566 0)
(0.00405367 -0.193442 0)
(0.00021059 0.0223939 0)
(3.35237e-05 0.0321799 0)
(0.000235163 0.0337984 0)
(0.000840569 0.0343128 0)
(0.00191815 0.0346577 0)
(0.00354035 0.0349541 0)
(0.0057311 0.0350903 0)
(0.0084583 0.034842 0)
(0.0116238 0.0339248 0)
(0.0150575 0.0320341 0)
(0.0184716 0.0288601 0)
(0.0214891 0.0241587 0)
(0.0234185 0.0177076 0)
(0.0239149 0.00967743 0)
(0.021613 -0.000160455 0)
(0.017625 -0.0128079 0)
(0.00743366 -0.0310406 0)
(0.00900897 -0.0613879 0)
(-0.00927885 -0.10932 0)
(0.00545399 -0.197042 0)
(-1.80796e-06 0.0223275 0)
(-0.000115388 0.032066 0)
(0.000211031 0.0333165 0)
(0.00102081 0.0333628 0)
(0.00227815 0.0332212 0)
(0.00401723 0.0330084 0)
(0.00622387 0.0326563 0)
(0.00882948 0.0320022 0)
(0.0117047 0.0308348 0)
(0.0146621 0.0289331 0)
(0.0174302 0.0260954 0)
(0.0196731 0.0221823 0)
(0.02094 0.0170837 0)
(0.0209402 0.0108625 0)
(0.0188721 0.00313628 0)
(0.0158112 -0.00759104 0)
(0.00647049 -0.0249703 0)
(0.0102559 -0.0549751 0)
(-0.0109015 -0.10551 0)
(0.00934459 -0.199501 0)
(-0.000240795 0.0226238 0)
(-0.000603572 0.0320023 0)
(-0.00022388 0.0327067 0)
(0.000712357 0.0322526 0)
(0.00214727 0.0316393 0)
(0.00404441 0.0309819 0)
(0.0063425 0.0302456 0)
(0.00894046 0.0293173 0)
(0.0116918 0.0280455 0)
(0.0144094 0.0262674 0)
(0.0168529 0.0238477 0)
(0.0187465 0.0206818 0)
(0.0198114 0.0166816 0)
(0.0197416 0.0119816 0)
(0.0180131 0.00589486 0)
(0.0157107 -0.00332588 0)
(0.00723129 -0.0198663 0)
(0.0123411 -0.0490415 0)
(-0.0115787 -0.103879 0)
(0.0136585 -0.202425 0)
(-0.00104847 0.0234912 0)
(-0.001721 0.0318581 0)
(-0.00123696 0.0319588 0)
(-6.95162e-05 0.0309531 0)
(0.00168012 0.0298491 0)
(0.00389923 0.0287785 0)
(0.00646808 0.0277303 0)
(0.0092629 0.0266185 0)
(0.0121326 0.0253338 0)
(0.0149083 0.0237397 0)
(0.0173935 0.0217291 0)
(0.0193905 0.0192224 0)
(0.0205467 0.0162789 0)
(0.0207299 0.0127108 0)
(0.0195819 0.00804923 0)
(0.0178836 6.27095e-05 0)
(0.0105569 -0.0153254 0)
(0.0161075 -0.0434466 0)
(-0.00999591 -0.102503 0)
(0.0212808 -0.203124 0)
(-0.00160329 0.0259834 0)
(-0.00348732 0.0321883 0)
(-0.00288502 0.0311871 0)
(-0.00103965 0.0292673 0)
(0.00142561 0.0275936 0)
(0.0043327 0.0261334 0)
(0.00751518 0.0248413 0)
(0.0108681 0.0236031 0)
(0.014232 0.0223512 0)
(0.0174814 0.0209515 0)
(0.0203996 0.0193759 0)
(0.0228059 0.0175481 0)
(0.0244548 0.0154498 0)
(0.0253149 0.0128836 0)
(0.024993 0.00940152 0)
(0.0240937 0.00263772 0)
(0.0181174 -0.0110948 0)
(0.0231612 -0.0386213 0)
(-0.00395566 -0.101596 0)
(0.0305546 -0.203932 0)
(-0.0048379 0.0297629 0)
(-0.00783468 0.032499 0)
(-0.00382791 0.0292551 0)
(-0.000457624 0.0264331 0)
(0.00346902 0.0243307 0)
(0.00772475 0.022537 0)
(0.0120875 0.0210671 0)
(0.0165908 0.0197391 0)
(0.0209615 0.0185814 0)
(0.0252611 0.0173823 0)
(0.0291562 0.0162238 0)
(0.0327171 0.0149139 0)
(0.0355546 0.013568 0)
(0.0378237 0.0118565 0)
(0.0387008 0.00958739 0)
(0.0389784 0.00446497 0)
(0.0340644 -0.00667521 0)
(0.0377759 -0.0338686 0)
(0.0092808 -0.09987 0)
(0.04431 -0.19608 0)
(-0.00819659 0.0407509 0)
(-0.00890628 0.0245779 0)
(0.000838647 0.0212666 0)
(0.00800315 0.0193575 0)
(0.0152311 0.0176263 0)
(0.0226051 0.0159515 0)
(0.0293595 0.0146477 0)
(0.0363926 0.0135252 0)
(0.0426397 0.0126967 0)
(0.0491878 0.0118849 0)
(0.0547372 0.0112308 0)
(0.0605443 0.0105144 0)
(0.0650649 0.00989325 0)
(0.0697694 0.00902614 0)
(0.0724957 0.00805036 0)
(0.0751582 0.00374818 0)
(0.0708719 -0.00545186 0)
(0.0725556 -0.0305655 0)
(0.0438008 -0.0880405 0)
(0.0682714 -0.156085 0)
(0.0463221 0.0413009 0)
(0.0528578 0.0302982 0)
(0.0755821 0.0226423 0)
(0.0973826 0.0180131 0)
(0.111938 0.0154842 0)
(0.127022 0.0131684 0)
(0.137501 0.0118545 0)
(0.150423 0.0101238 0)
(0.158721 0.00957095 0)
(0.170185 0.00810507 0)
(0.17684 0.00813158 0)
(0.187075 0.00668694 0)
(0.192426 0.00720157 0)
(0.201276 0.00561737 0)
(0.205265 0.00649454 0)
(0.212004 0.00414296 0)
(0.211034 0.00202864 0)
(0.202442 -0.00464747 0)
(0.167811 -0.0137676 0)
(0.13234 -0.0375454 0)
)
;

boundaryField
{
    movingWall
    {
        type            fixedValue;
        value           uniform (1 0 0);
    }
    fixedWalls
    {
        type            noSlip;
    }
    frontAndBack
    {
        type            empty;
    }
}


// ************************************************************************* //
