/*--------------------------------*- C++ -*----------------------------------*\
| =========                 |                                                 |
| \\      /  F ield         | OpenFOAM: The Open Source CFD Toolbox           |
|  \\    /   O peration     | Version:  5.0                                   |
|   \\  /    A nd           | Web:      www.OpenFOAM.org                      |
|    \\/     M anipulation  |                                                 |
\*---------------------------------------------------------------------------*/
FoamFile
{
    version     2.0;
    format      ascii;
    class       volScalarField;
    location    "6.5";
    object      k;
}
// * * * * * * * * * * * * * * * * * * * * * * * * * * * * * * * * * * * * * //

dimensions      [0 2 -2 0 0 0 0];

internalField   nonuniform List<scalar> 
400
(
5.48353e-10
2.69261e-09
1.66884e-08
9.81238e-08
2.97625e-07
5.66694e-07
8.42585e-07
1.11123e-06
1.36508e-06
1.62263e-06
1.883e-06
2.19677e-06
2.59311e-06
2.8631e-06
2.93661e-06
2.80748e-06
1.98815e-06
1.12978e-06
5.28506e-07
2.56077e-07
7.07656e-09
7.65494e-08
2.61245e-07
8.22901e-07
2.22562e-06
5.05721e-06
9.37727e-06
1.48506e-05
2.02637e-05
2.56869e-05
2.95094e-05
3.19054e-05
3.27729e-05
3.24153e-05
2.91359e-05
2.47296e-05
1.68362e-05
7.73377e-06
2.87819e-06
9.79466e-07
6.34974e-08
4.63072e-07
1.40169e-06
4.19983e-06
1.17854e-05
2.69575e-05
5.13114e-05
8.29868e-05
0.000105727
0.000123751
0.000131799
0.000134708
0.000132091
0.000120581
0.000107557
8.82574e-05
6.29605e-05
2.96446e-05
8.51429e-06
1.91761e-06
2.18088e-07
1.49331e-06
4.62038e-06
1.4897e-05
4.38132e-05
9.44538e-05
0.000143819
0.000170232
0.000190029
0.000199011
0.000202474
0.000203258
0.000197746
0.000193791
0.000185295
0.000173346
0.000147186
8.13126e-05
2.04286e-05
2.78872e-06
4.27367e-07
3.31846e-06
1.19003e-05
3.90917e-05
9.11977e-05
0.000139876
0.000164122
0.00017715
0.000186672
0.000190624
0.000193454
0.000197338
0.00020095
0.000204208
0.000205246
0.000204792
0.000195536
0.000144372
3.81552e-05
3.56253e-06
8.6283e-07
7.11303e-06
2.35829e-05
6.31834e-05
0.000119752
0.000147319
0.000158878
0.000161753
0.000155412
0.000152509
0.000154224
0.000166237
0.000178749
0.000196436
0.000207823
0.000212695
0.000214823
0.000181609
6.01627e-05
4.20283e-06
1.20872e-06
1.02144e-05
3.26099e-05
8.12041e-05
0.000128402
0.00014225
0.000141407
0.000120537
0.000109681
0.000106936
0.000113065
0.000128836
0.000145738
0.000168169
0.000192318
0.000208224
0.000218531
0.00019793
8.13979e-05
4.67417e-06
1.25432e-06
1.25412e-05
3.91042e-05
9.38722e-05
0.000126976
0.000131227
0.000111644
8.72063e-05
7.83343e-05
7.69042e-05
8.76749e-05
0.000105924
0.000126057
0.000149167
0.000174309
0.000190504
0.000210995
0.000203852
9.8328e-05
5.00493e-06
1.17714e-06
1.33354e-05
4.22644e-05
9.78478e-05
0.000123467
0.000119451
8.8129e-05
6.64488e-05
5.97749e-05
5.96181e-05
7.283e-05
9.22775e-05
0.000113448
0.000135612
0.000159839
0.000177388
0.000194924
0.000204202
0.000109851
5.22138e-06
9.46894e-07
1.29653e-05
4.16121e-05
9.67292e-05
0.000119661
0.000110326
7.49765e-05
5.58074e-05
5.04281e-05
5.17563e-05
6.4733e-05
8.50679e-05
0.000106102
0.000126952
0.000147
0.000169411
0.000175076
0.000196323
0.000115704
5.3657e-06
7.45881e-07
1.18605e-05
3.90516e-05
9.30094e-05
0.000116426
0.000105665
7.47212e-05
5.49143e-05
4.81832e-05
4.94989e-05
6.15667e-05
8.20335e-05
0.000101533
0.00012114
0.000134356
0.00016126
0.000160687
0.000187362
0.000117905
5.48042e-06
5.89398e-07
9.68619e-06
3.34832e-05
8.51812e-05
0.000110602
0.00010403
7.77382e-05
5.72554e-05
4.96095e-05
5.09443e-05
6.07533e-05
8.13279e-05
9.84431e-05
0.000116161
0.000126288
0.000150399
0.000146693
0.000176614
0.000117582
5.58958e-06
4.4229e-07
6.87915e-06
2.57959e-05
7.19072e-05
0.000102617
0.000100801
8.65287e-05
6.54521e-05
5.61877e-05
5.75316e-05
6.45987e-05
8.1569e-05
9.56919e-05
0.000111272
0.000120057
0.000139626
0.000135973
0.000164638
0.000108471
5.70474e-06
2.98957e-07
4.27411e-06
1.75647e-05
5.52341e-05
9.05327e-05
9.40669e-05
8.8215e-05
7.47416e-05
6.66489e-05
6.68495e-05
7.02064e-05
8.09444e-05
9.2319e-05
0.000106577
0.000113856
0.000127683
0.000123443
0.000150963
9.67131e-05
5.85146e-06
1.62787e-07
2.21103e-06
1.03449e-05
3.44634e-05
7.31277e-05
8.55026e-05
8.46194e-05
7.87092e-05
7.2514e-05
7.22096e-05
7.35468e-05
7.95133e-05
8.84314e-05
0.000100899
0.000107189
0.000114137
0.000110555
0.000133163
8.13222e-05
5.86107e-06
6.36482e-08
1.01211e-06
5.17341e-06
1.75481e-05
4.73446e-05
6.78623e-05
7.5178e-05
7.45957e-05
7.22126e-05
7.23722e-05
7.35257e-05
7.7855e-05
8.33897e-05
9.08058e-05
9.43714e-05
9.4313e-05
9.14619e-05
0.000112138
6.41916e-05
5.36963e-06
1.91758e-08
4.53876e-07
2.38598e-06
7.91125e-06
2.25722e-05
4.1398e-05
5.26892e-05
5.95597e-05
6.16671e-05
6.3283e-05
6.40409e-05
6.58116e-05
6.76189e-05
6.91895e-05
6.78776e-05
6.44916e-05
6.9892e-05
8.8084e-05
4.61505e-05
4.66445e-06
1.55086e-08
2.18174e-07
1.05888e-06
3.32208e-06
8.48774e-06
1.9172e-05
2.74549e-05
3.28918e-05
3.59217e-05
3.68125e-05
3.65556e-05
3.5579e-05
3.47569e-05
3.47817e-05
3.64199e-05
4.17397e-05
6.09321e-05
6.24026e-05
2.92721e-05
3.60066e-06
4.2636e-08
2.4298e-07
7.94448e-07
1.7721e-06
3.53338e-06
6.71083e-06
1.13389e-05
1.3642e-05
1.6621e-05
1.77101e-05
1.9883e-05
2.11694e-05
2.42967e-05
2.70683e-05
3.40786e-05
4.15283e-05
6.01531e-05
4.98579e-05
1.61832e-05
2.38648e-06
1.60872e-08
3.70158e-08
1.04394e-07
1.93156e-07
3.86387e-07
6.14186e-07
1.13322e-06
1.33069e-06
1.66831e-06
1.71881e-06
1.83126e-06
1.8194e-06
1.85182e-06
1.87427e-06
2.06964e-06
1.9683e-06
2.02204e-06
2.01435e-06
1.84738e-06
1.28932e-06
)
;

boundaryField
{
    movingWall
    {
        type            kqRWallFunction;
        value           nonuniform List<scalar> 
20
(
1.60872e-08
3.70158e-08
1.04394e-07
1.93156e-07
3.86387e-07
6.14186e-07
1.13322e-06
1.33069e-06
1.66831e-06
1.71881e-06
1.83126e-06
1.8194e-06
1.85182e-06
1.87427e-06
2.06964e-06
1.9683e-06
2.02204e-06
2.01435e-06
1.84738e-06
1.28932e-06
)
;
    }
    fixedWalls
    {
        type            kqRWallFunction;
        value           nonuniform List<scalar> 
60
(
5.48353e-10
7.07656e-09
6.34974e-08
2.18088e-07
4.27367e-07
8.6283e-07
1.20872e-06
1.25432e-06
1.17714e-06
9.46894e-07
7.45881e-07
5.89398e-07
4.4229e-07
2.98957e-07
1.62787e-07
6.36482e-08
1.91758e-08
1.55086e-08
4.2636e-08
1.60872e-08
2.56077e-07
9.79466e-07
1.91761e-06
2.78872e-06
3.56253e-06
4.20283e-06
4.67417e-06
5.00493e-06
5.22138e-06
5.3657e-06
5.48042e-06
5.58958e-06
5.70474e-06
5.85146e-06
5.86107e-06
5.36963e-06
4.66445e-06
3.60066e-06
2.38648e-06
1.28932e-06
5.48353e-10
2.69261e-09
1.66884e-08
9.81238e-08
2.97625e-07
5.66694e-07
8.42585e-07
1.11123e-06
1.36508e-06
1.62263e-06
1.883e-06
2.19677e-06
2.59311e-06
2.8631e-06
2.93661e-06
2.80748e-06
1.98815e-06
1.12978e-06
5.28506e-07
2.56077e-07
)
;
    }
    frontAndBack
    {
        type            empty;
    }
}


// ************************************************************************* //
