/*--------------------------------*- C++ -*----------------------------------*\
| =========                 |                                                 |
| \\      /  F ield         | OpenFOAM: The Open Source CFD Toolbox           |
|  \\    /   O peration     | Version:  5.0                                   |
|   \\  /    A nd           | Web:      www.OpenFOAM.org                      |
|    \\/     M anipulation  |                                                 |
\*---------------------------------------------------------------------------*/
FoamFile
{
    version     2.0;
    format      ascii;
    class       volScalarField;
    location    "6.5";
    object      nut;
}
// * * * * * * * * * * * * * * * * * * * * * * * * * * * * * * * * * * * * * //

dimensions      [0 2 -1 0 0 0 0];

internalField   nonuniform List<scalar> 
400
(
4.28401e-12
2.1036e-11
1.30378e-10
7.66593e-10
2.32519e-09
4.4273e-09
6.5827e-09
8.6815e-09
1.06647e-08
1.26768e-08
1.47109e-08
1.71623e-08
2.02587e-08
2.2368e-08
2.29422e-08
2.19334e-08
1.55324e-08
8.82637e-09
4.12896e-09
2.0006e-09
5.52856e-11
1.49529e-09
3.51381e-09
1.00404e-08
2.82491e-08
7.51284e-08
1.61498e-07
3.06809e-07
4.75536e-07
6.87933e-07
8.45605e-07
9.42844e-07
9.68776e-07
8.81975e-07
7.45306e-07
5.57472e-07
3.23744e-07
1.18479e-07
3.17114e-08
7.65208e-09
4.96074e-10
9.34656e-09
2.50777e-08
7.67251e-08
2.73607e-07
7.89802e-07
1.82225e-06
3.40415e-06
4.70139e-06
5.76885e-06
6.2614e-06
6.42268e-06
6.10856e-06
5.27785e-06
4.25315e-06
2.97868e-06
1.66438e-06
5.64215e-07
1.02655e-07
1.49814e-08
1.70382e-09
3.26586e-08
1.03752e-07
3.99065e-07
1.65056e-06
4.41248e-06
8.23893e-06
1.10095e-05
1.37447e-05
1.52675e-05
1.60498e-05
1.62586e-05
1.54219e-05
1.39927e-05
1.17739e-05
9.00321e-06
5.64194e-06
2.0523e-06
2.83709e-07
2.17868e-08
3.33881e-09
8.11738e-08
3.32671e-07
1.47646e-06
4.96979e-06
9.56349e-06
1.42728e-05
1.77408e-05
2.12656e-05
2.31529e-05
2.41626e-05
2.47307e-05
2.36062e-05
2.1632e-05
1.83439e-05
1.43286e-05
9.54819e-06
4.38083e-06
5.89053e-07
2.78323e-08
6.74086e-09
1.93666e-07
8.08148e-07
3.15858e-06
8.82394e-06
1.39662e-05
1.96116e-05
2.32952e-05
2.51842e-05
2.60455e-05
2.67855e-05
2.82699e-05
2.82047e-05
2.75582e-05
2.4463e-05
1.96201e-05
1.34519e-05
6.77411e-06
1.0408e-06
3.28346e-08
9.44309e-09
3.08546e-07
1.31051e-06
5.09904e-06
1.2015e-05
1.74733e-05
2.2848e-05
2.28322e-05
2.27435e-05
2.29537e-05
2.43947e-05
2.64234e-05
2.76609e-05
2.80246e-05
2.6625e-05
2.26546e-05
1.58748e-05
8.28502e-06
1.51306e-06
3.65169e-08
9.79938e-09
4.01903e-07
1.81197e-06
6.94021e-06
1.39615e-05
1.93702e-05
2.17202e-05
1.96928e-05
1.89659e-05
1.89867e-05
2.13047e-05
2.42286e-05
2.67406e-05
2.80085e-05
2.73084e-05
2.37406e-05
1.80796e-05
9.84453e-06
1.98292e-06
3.9101e-08
9.1964e-09
4.60392e-07
2.13602e-06
7.97991e-06
1.51334e-05
2.01911e-05
1.93957e-05
1.66625e-05
1.57527e-05
1.5841e-05
1.86657e-05
2.2259e-05
2.54512e-05
2.71247e-05
2.68468e-05
2.37039e-05
1.8264e-05
1.06254e-05
2.32202e-06
4.0792e-08
7.39761e-09
4.46101e-07
2.27369e-06
8.4119e-06
1.55208e-05
1.98893e-05
1.73468e-05
1.45454e-05
1.36442e-05
1.39983e-05
1.67902e-05
2.09083e-05
2.43171e-05
2.61304e-05
2.577e-05
2.34903e-05
1.79065e-05
1.11396e-05
2.58464e-06
4.19196e-08
5.8272e-09
3.83987e-07
2.17267e-06
8.06374e-06
1.49833e-05
1.89152e-05
1.71582e-05
1.4264e-05
1.30258e-05
1.32817e-05
1.57222e-05
1.99544e-05
2.33274e-05
2.51031e-05
2.39528e-05
2.26716e-05
1.70891e-05
1.10744e-05
2.74045e-06
4.28158e-08
4.60467e-09
2.75508e-07
1.82314e-06
7.21469e-06
1.37735e-05
1.79791e-05
1.72311e-05
1.45036e-05
1.31243e-05
1.32736e-05
1.50575e-05
1.92047e-05
2.19979e-05
2.34299e-05
2.23666e-05
2.12077e-05
1.58217e-05
1.06566e-05
2.85383e-06
4.36686e-08
3.45539e-09
1.56896e-07
1.30452e-06
5.76593e-06
1.19353e-05
1.61768e-05
1.77156e-05
1.54958e-05
1.38875e-05
1.4012e-05
1.51538e-05
1.82924e-05
2.0327e-05
2.13106e-05
2.02739e-05
1.90843e-05
1.45809e-05
9.98557e-06
2.69522e-06
4.45683e-08
2.3356e-09
7.97823e-08
7.6049e-07
3.97015e-06
9.30995e-06
1.32021e-05
1.58953e-05
1.57966e-05
1.49972e-05
1.49629e-05
1.53486e-05
1.68551e-05
1.81184e-05
1.87357e-05
1.78366e-05
1.66553e-05
1.26615e-05
8.94349e-06
2.41086e-06
4.57145e-08
1.27177e-09
3.38173e-08
3.63106e-07
2.12637e-06
6.50603e-06
1.00717e-05
1.24406e-05
1.35306e-05
1.36211e-05
1.37738e-05
1.38448e-05
1.43666e-05
1.51306e-05
1.56303e-05
1.50736e-05
1.36781e-05
1.05002e-05
7.48289e-06
1.97419e-06
4.57896e-08
4.97251e-10
1.37486e-08
1.37283e-07
8.4752e-07
3.45502e-06
6.63203e-06
9.17141e-06
1.0544e-05
1.11801e-05
1.14032e-05
1.14711e-05
1.17403e-05
1.20614e-05
1.21368e-05
1.16433e-05
1.00843e-05
7.75491e-06
5.79056e-06
1.48508e-06
4.19502e-08
1.49811e-10
6.41451e-09
5.41505e-08
2.77971e-07
1.18059e-06
2.98338e-06
4.81873e-06
6.42237e-06
7.41404e-06
8.03412e-06
8.13886e-06
8.24013e-06
8.19454e-06
7.85446e-06
7.11859e-06
5.84389e-06
4.99238e-06
3.93827e-06
9.59678e-07
3.6441e-08
1.21161e-10
3.73836e-09
2.43082e-08
9.95624e-08
3.25864e-07
9.26578e-07
1.62936e-06
2.33358e-06
2.91426e-06
3.2528e-06
3.40726e-06
3.35965e-06
3.25037e-06
3.1253e-06
3.00385e-06
2.8804e-06
3.27151e-06
2.14751e-06
4.96729e-07
2.81302e-08
3.33094e-10
5.5167e-09
1.88237e-08
4.74766e-08
1.08505e-07
2.31531e-07
4.39007e-07
5.67456e-07
7.38043e-07
8.05287e-07
8.98703e-07
9.31155e-07
1.01328e-06
1.01711e-06
1.162e-06
1.18982e-06
1.44479e-06
8.81489e-07
1.80362e-07
1.86443e-08
1.25682e-10
2.89186e-10
8.15581e-10
1.50903e-09
3.01864e-09
4.79833e-09
8.85328e-09
1.0396e-08
1.30337e-08
1.34282e-08
1.43067e-08
1.42141e-08
1.44673e-08
1.46427e-08
1.61691e-08
1.53773e-08
1.57972e-08
1.57371e-08
1.44326e-08
1.00728e-08
)
;

boundaryField
{
    movingWall
    {
        type            nutkWallFunction;
        Cmu             0.09;
        kappa           0.41;
        E               9.8;
        value           uniform 0;
    }
    fixedWalls
    {
        type            nutkWallFunction;
        Cmu             0.09;
        kappa           0.41;
        E               9.8;
        value           uniform 0;
    }
    frontAndBack
    {
        type            empty;
    }
}


// ************************************************************************* //
