/*--------------------------------*- C++ -*----------------------------------*\
| =========                 |                                                 |
| \\      /  F ield         | OpenFOAM: The Open Source CFD Toolbox           |
|  \\    /   O peration     | Version:  5.0                                   |
|   \\  /    A nd           | Web:      www.OpenFOAM.org                      |
|    \\/     M anipulation  |                                                 |
\*---------------------------------------------------------------------------*/
FoamFile
{
    version     2.0;
    format      ascii;
    class       volScalarField;
    location    "6.5";
    object      omega;
}
// * * * * * * * * * * * * * * * * * * * * * * * * * * * * * * * * * * * * * //

dimensions      [0 0 -1 0 0 0 0];

internalField   nonuniform List<scalar> 
400
(
128
128
128
128
128
128
128
128
128
128
128
128
128
128
128
128
128
128
128
128
128
51.1938
74.348
81.9592
78.7856
67.3142
58.0644
48.4034
42.6123
37.3393
34.8974
33.8395
33.8291
36.7531
39.0925
44.3603
52.0045
65.2756
90.7617
128
128
49.5446
55.8941
54.7386
43.0741
34.132
28.1583
24.3781
22.4885
21.4516
21.0495
20.9737
21.6239
22.8465
25.2889
29.6297
37.8281
52.5413
82.9409
128
128
45.7247
44.5328
37.3297
26.5445
21.406
17.4561
15.4622
13.8257
13.0349
12.6154
12.5016
12.8224
13.8494
15.7378
19.2538
26.0879
39.6203
72.0056
128
128
40.881
35.7719
26.4766
18.3504
14.626
11.4989
9.98544
8.77812
8.23326
8.00634
7.97947
8.51259
9.4401
11.1887
14.2925
20.4788
32.9554
64.7738
128
128
36.7282
29.1814
20.0037
13.5712
10.5482
8.10124
6.94365
6.17102
5.85547
5.75775
5.88034
6.33755
7.12807
8.49539
10.8407
15.9697
26.8092
57.8044
128
128
33.105
24.8835
15.9253
10.6868
8.14101
6.18901
5.27926
4.82252
4.65875
4.63479
4.87583
5.26874
6.00077
7.22322
9.19126
13.7659
23.8901
53.7968
128
128
31.2044
21.581
13.5258
9.09472
6.77472
5.14011
4.42833
4.13027
4.05043
4.11529
4.37187
4.71408
5.32578
6.383
8.02437
11.6703
20.7071
49.5875
128
128
28.9654
19.7866
12.2618
8.15859
5.91601
4.54373
3.98793
3.79459
3.76354
3.90181
4.14563
4.45746
4.99958
5.95373
7.48348
10.6726
19.2183
47.3085
128
128
29.0635
18.3016
11.4991
7.7097
5.54699
4.32221
3.83678
3.69594
3.69733
3.85541
4.06862
4.36327
4.8584
5.70433
7.21195
9.77726
17.6239
44.7658
128
128
30.8877
17.974
11.5343
7.77038
5.58624
4.35484
3.84985
3.69905
3.72685
3.91591
4.11104
4.35253
4.82571
5.60918
7.11286
9.40289
16.9186
43.0241
128
128
35.1576
18.3657
11.8066
8.03009
5.78616
4.5115
3.94766
3.77998
3.83803
4.03476
4.23478
4.47512
4.95781
5.64628
7.09173
9.27164
16.5732
41.2016
128
128
43.8453
19.7742
12.4711
8.59782
6.23119
4.88432
4.22386
4.04593
4.10587
4.26288
4.45917
4.70764
5.22145
5.92176
7.31627
9.32542
16.4876
40.2459
128
128
53.5721
23.0966
13.9123
9.7243
7.12512
5.54974
4.7315
4.44408
4.46768
4.57414
4.80238
5.09531
5.68844
6.38325
7.66623
9.74947
16.8797
40.1156
128
128
65.3816
28.4901
16.2077
11.24
8.48936
6.80187
5.81711
5.32366
5.24253
5.31224
5.53461
5.84452
6.45534
7.11104
8.34452
10.5288
17.7957
41.1926
128
128
73.6157
37.6843
20.7052
13.7031
10.2325
8.197
7.07467
6.45906
6.34666
6.40965
6.63144
6.91376
7.48187
8.1052
9.3525
11.7941
19.3656
43.2243
128
128
70.7577
44.0621
28.4607
19.1195
13.8762
10.9342
9.27379
8.3176
7.87677
7.86853
7.98673
8.2517
8.80895
9.53526
11.0357
13.9997
22.3662
48.0896
128
128
58.361
43.5607
33.3668
26.0469
20.6912
16.85
14.095
12.3262
11.3172
10.7287
10.5901
10.6932
11.1291
12.1244
14.491
18.6251
29.0581
58.9297
128
128
44.0444
42.2047
37.3258
32.5642
28.9846
25.8284
24.0407
22.5204
21.9923
22.1241
22.7345
23.9781
26.613
29.3275
34.903
41.6345
56.561
89.7261
128
128
128
128
128
128
128
128
128
128
128
128
128
128
128
128
128
128
128
128
128
)
;

boundaryField
{
    movingWall
    {
        Cmu             0.09;
        kappa           0.41;
        E               9.8;
        beta1           0.075;
        blended         false;
        type            omegaWallFunction;
        value           nonuniform List<scalar> 
20
(
128
128
128
128
128
128
128
128
128
128
128
128
128
128
128
128
128
128
128
128
)
;
    }
    fixedWalls
    {
        Cmu             0.09;
        kappa           0.41;
        E               9.8;
        beta1           0.075;
        blended         false;
        type            omegaWallFunction;
        value           nonuniform List<scalar> 
60
(
128
128
128
128
128
128
128
128
128
128
128
128
128
128
128
128
128
128
128
128
128
128
128
128
128
128
128
128
128
128
128
128
128
128
128
128
128
128
128
128
128
128
128
128
128
128
128
128
128
128
128
128
128
128
128
128
128
128
128
128
)
;
    }
    frontAndBack
    {
        type            empty;
    }
}


// ************************************************************************* //
