/*--------------------------------*- C++ -*----------------------------------*\
| =========                 |                                                 |
| \\      /  F ield         | OpenFOAM: The Open Source CFD Toolbox           |
|  \\    /   O peration     | Version:  5.0                                   |
|   \\  /    A nd           | Web:      www.OpenFOAM.org                      |
|    \\/     M anipulation  |                                                 |
\*---------------------------------------------------------------------------*/
FoamFile
{
    version     2.0;
    format      ascii;
    class       volScalarField;
    location    "6.5";
    object      p;
}
// * * * * * * * * * * * * * * * * * * * * * * * * * * * * * * * * * * * * * //

dimensions      [0 2 -2 0 0 0 0];

internalField   nonuniform List<scalar> 
400
(
3.77874e-08
-7.78259e-05
-0.000209416
-0.000149635
-0.000650153
-0.00205563
-0.00389507
-0.00562191
-0.00702979
-0.00800448
-0.00851872
-0.0085284
-0.0079929
-0.00675449
-0.00465839
-0.00164855
0.00218233
0.00634263
0.00943892
0.0107069
2.283e-05
-3.84807e-05
-0.000168521
-0.00066131
-0.00169736
-0.00324966
-0.00491497
-0.00652097
-0.00781165
-0.00870558
-0.00917352
-0.00920193
-0.00875292
-0.00772722
-0.00598087
-0.00342119
-5.02831e-05
0.00387809
0.00737083
0.00933621
0.000263545
-3.35315e-05
-0.000662287
-0.0017641
-0.00331335
-0.0049953
-0.00665169
-0.00816214
-0.00926705
-0.00998625
-0.0103247
-0.010285
-0.00982957
-0.00895089
-0.00759345
-0.00566163
-0.003049
0.000235538
0.00367718
0.00600071
0.000203591
-0.000403033
-0.00160557
-0.00330722
-0.00517295
-0.0069267
-0.00843163
-0.00956792
-0.0103766
-0.0108836
-0.0110871
-0.0109933
-0.0106069
-0.00990187
-0.0088631
-0.00745189
-0.00556054
-0.00306982
-0.00019327
0.00203311
-0.000491703
-0.0013317
-0.00298069
-0.00498212
-0.00687673
-0.00846379
-0.00970179
-0.0106081
-0.0112511
-0.0116457
-0.0117967
-0.0117029
-0.0113614
-0.0107721
-0.00993602
-0.00885442
-0.00750334
-0.00570912
-0.00366193
-0.00164524
-0.00181376
-0.00274276
-0.00454098
-0.00651843
-0.00825689
-0.00961299
-0.0106481
-0.0114206
-0.011972
-0.0123066
-0.0124339
-0.0123537
-0.0120667
-0.0115746
-0.0108872
-0.0100261
-0.00904018
-0.0077421
-0.00635613
-0.00469277
-0.0033975
-0.00431288
-0.00601532
-0.00781868
-0.00934533
-0.0105059
-0.011413
-0.0121026
-0.0125953
-0.0128918
-0.0130037
-0.0129365
-0.0126949
-0.0122826
-0.0117116
-0.0109961
-0.010256
-0.00927533
-0.0083814
-0.00704575
-0.00487484
-0.00569924
-0.00722698
-0.00884813
-0.0101884
-0.011212
-0.0120389
-0.0126761
-0.0131304
-0.0134006
-0.0135007
-0.013442
-0.0132323
-0.012878
-0.0123938
-0.0117692
-0.0111972
-0.0103903
-0.00982503
-0.00876697
-0.00598146
-0.00672716
-0.00810776
-0.00958958
-0.0108045
-0.0117455
-0.0125265
-0.0131323
-0.0135617
-0.0138121
-0.0139014
-0.0138463
-0.0136567
-0.0133376
-0.0129128
-0.0123276
-0.0118817
-0.0111153
-0.0108193
-0.00993686
-0.00664346
-0.0073214
-0.00861369
-0.0100263
-0.0111777
-0.0120817
-0.0128472
-0.0134415
-0.0138603
-0.0140991
-0.0141807
-0.0141249
-0.0139452
-0.0136371
-0.0132544
-0.0126436
-0.0123317
-0.0114511
-0.0114356
-0.0106079
-0.00682322
-0.00748006
-0.00872865
-0.0101369
-0.0112887
-0.0122029
-0.012976
-0.013577
-0.0139997
-0.0142376
-0.0143168
-0.0142571
-0.01408
-0.0137566
-0.013399
-0.0127056
-0.0125126
-0.0114033
-0.01172
-0.0107668
-0.00652489
-0.00721631
-0.00846014
-0.00991528
-0.011111
-0.0120763
-0.0128816
-0.0135112
-0.0139553
-0.0142096
-0.0142953
-0.0142333
-0.0140393
-0.0137028
-0.0132836
-0.0125749
-0.0123073
-0.0110451
-0.0115999
-0.0103933
-0.00585088
-0.00660507
-0.00786475
-0.00935396
-0.010641
-0.0116867
-0.012553
-0.013236
-0.0137242
-0.0140107
-0.0141115
-0.0140433
-0.0138238
-0.0134443
-0.0129342
-0.0121979
-0.0117068
-0.0103972
-0.0110136
-0.00946087
-0.00502949
-0.00582997
-0.00704253
-0.00845265
-0.00984795
-0.0110068
-0.011971
-0.0127406
-0.0132997
-0.0136354
-0.0137599
-0.0136853
-0.0134293
-0.0129794
-0.012358
-0.0115305
-0.0107522
-0.00943743
-0.00995178
-0.00799811
-0.00434463
-0.0050508
-0.00608741
-0.00731456
-0.0087066
-0.0100015
-0.0111201
-0.0120237
-0.0126885
-0.0130966
-0.013257
-0.0131744
-0.0128656
-0.0123173
-0.0115521
-0.0105594
-0.00948805
-0.00815186
-0.00846855
-0.00604991
-0.00419151
-0.00447951
-0.00504737
-0.00595253
-0.00722194
-0.00864027
-0.0099581
-0.0110514
-0.0118732
-0.0123905
-0.0126061
-0.0125168
-0.0121436
-0.0114742
-0.0105322
-0.00932358
-0.00799354
-0.00658778
-0.00660508
-0.00364215
-0.00430418
-0.00412487
-0.00396519
-0.0044048
-0.0054817
-0.0069522
-0.00847075
-0.00978902
-0.0108155
-0.0114886
-0.0118026
-0.0117442
-0.0113206
-0.0105289
-0.00939944
-0.00795468
-0.00636795
-0.00481566
-0.00437048
-0.000620999
-0.0041286
-0.00354836
-0.00274988
-0.0027325
-0.00363888
-0.00513316
-0.00680685
-0.00831238
-0.00953362
-0.0103763
-0.0108107
-0.0108108
-0.0103889
-0.00953892
-0.00828156
-0.00664273
-0.00478888
-0.00287362
-0.00135678
0.0044384
-0.00356028
-0.00275058
-0.00160938
-0.00136759
-0.00218254
-0.0036734
-0.00544218
-0.00712146
-0.008515
-0.0095205
-0.010076
-0.0101645
-0.00976505
-0.00888248
-0.00754313
-0.00574987
-0.00351896
-0.00053422
0.00469551
0.0171345
-0.00507947
-0.00194953
-0.000533895
-0.0004802
-0.00126512
-0.00275057
-0.00455579
-0.00638716
-0.00791919
-0.00905083
-0.00969972
-0.00986803
-0.00953242
-0.00869865
-0.00730969
-0.00529344
-0.00190776
0.00487755
0.01873
0.0411445
)
;

boundaryField
{
    movingWall
    {
        type            zeroGradient;
    }
    fixedWalls
    {
        type            zeroGradient;
    }
    frontAndBack
    {
        type            empty;
    }
}


// ************************************************************************* //
