/*--------------------------------*- C++ -*----------------------------------*\
| =========                 |                                                 |
| \\      /  F ield         | OpenFOAM: The Open Source CFD Toolbox           |
|  \\    /   O peration     | Version:  5.0                                   |
|   \\  /    A nd           | Web:      www.OpenFOAM.org                      |
|    \\/     M anipulation  |                                                 |
\*---------------------------------------------------------------------------*/
FoamFile
{
    version     2.0;
    format      ascii;
    class       surfaceScalarField;
    location    "6.5";
    object      phi;
}
// * * * * * * * * * * * * * * * * * * * * * * * * * * * * * * * * * * * * * //

dimensions      [0 3 -1 0 0 0 0];

internalField   nonuniform List<scalar> 
760
(
2.33256e-07
-2.3326e-07
1.31186e-07
1.0207e-07
-4.52094e-07
5.8328e-07
-1.77579e-06
1.3237e-06
-3.44614e-06
1.67035e-06
-4.90635e-06
1.4602e-06
-6.13346e-06
1.22711e-06
-7.03977e-06
9.06313e-07
-7.73608e-06
6.96307e-07
-8.20587e-06
4.69789e-07
-8.50772e-06
3.01851e-07
-8.62401e-06
1.16292e-07
-8.57694e-06
-4.70645e-08
-8.32955e-06
-2.47395e-07
-7.87523e-06
-4.54321e-07
-7.06187e-06
-8.13356e-07
-5.81068e-06
-1.25119e-06
-3.94893e-06
-1.86175e-06
-1.65418e-06
-2.29475e-06
-1.65418e-06
-2.03069e-07
-3.0191e-08
-1.0477e-06
9.46705e-07
-2.60932e-06
2.1449e-06
-4.24335e-06
2.95773e-06
-5.38366e-06
2.81065e-06
-6.37284e-06
2.44939e-06
-7.11854e-06
1.97281e-06
-7.74692e-06
1.5347e-06
-8.1866e-06
1.13599e-06
-8.46216e-06
7.45348e-07
-8.57819e-06
4.17883e-07
-8.52606e-06
6.41589e-08
-8.36547e-06
-2.07658e-07
-8.08114e-06
-5.31717e-07
-7.62023e-06
-9.15238e-07
-6.95193e-06
-1.48166e-06
-5.92869e-06
-2.27442e-06
-4.41168e-06
-3.37876e-06
-2.28926e-06
-4.41717e-06
-3.94345e-06
-8.98153e-07
8.67962e-07
-2.32626e-06
2.37481e-06
-3.77702e-06
3.59565e-06
-4.79787e-06
3.97859e-06
-5.56108e-06
3.57386e-06
-6.13836e-06
3.02667e-06
-6.47733e-06
2.31178e-06
-6.665e-06
1.72237e-06
-6.65781e-06
1.1288e-06
-6.61412e-06
7.01656e-07
-6.51174e-06
3.15509e-07
-6.44508e-06
-2.50445e-09
-6.26727e-06
-3.85473e-07
-6.02563e-06
-7.73353e-07
-5.68257e-06
-1.2583e-06
-5.2433e-06
-1.92092e-06
-4.65111e-06
-2.86661e-06
-3.71908e-06
-4.31079e-06
-2.1965e-06
-5.93975e-06
-6.13995e-06
-1.24603e-06
2.11399e-06
-2.67849e-06
3.80728e-06
-3.77019e-06
4.68734e-06
-4.44485e-06
4.65325e-06
-4.83188e-06
3.96089e-06
-4.94495e-06
3.13974e-06
-4.93865e-06
2.30548e-06
-4.90253e-06
1.68624e-06
-4.89642e-06
1.12269e-06
-4.87347e-06
6.78707e-07
-4.82114e-06
2.63173e-07
-4.69997e-06
-1.2367e-07
-4.55044e-06
-5.35006e-07
-4.32952e-06
-9.94272e-07
-4.03739e-06
-1.55043e-06
-3.6931e-06
-2.26522e-06
-3.29129e-06
-3.26841e-06
-2.71613e-06
-4.88596e-06
-1.7048e-06
-6.95108e-06
-7.84474e-06
-1.26299e-06
3.37698e-06
-2.42927e-06
4.97356e-06
-3.18309e-06
5.44116e-06
-3.58771e-06
5.05786e-06
-3.70778e-06
4.08097e-06
-3.72868e-06
3.16065e-06
-3.75862e-06
2.33542e-06
-3.78657e-06
1.71419e-06
-3.81157e-06
1.14769e-06
-3.80648e-06
6.73618e-07
-3.75981e-06
2.16505e-07
-3.65828e-06
-2.25199e-07
-3.49793e-06
-6.95355e-07
-3.27445e-06
-1.21775e-06
-2.98833e-06
-1.83655e-06
-2.65511e-06
-2.59844e-06
-2.33884e-06
-3.58468e-06
-2.02665e-06
-5.19815e-06
-1.32772e-06
-7.65002e-06
-9.17246e-06
-1.04744e-06
4.42442e-06
-1.89479e-06
5.82091e-06
-2.44136e-06
5.98773e-06
-2.69575e-06
5.31225e-06
-2.78137e-06
4.16658e-06
-2.83408e-06
3.21336e-06
-2.91106e-06
2.4124e-06
-2.97537e-06
1.7785e-06
-3.01693e-06
1.18925e-06
-3.01553e-06
6.72219e-07
-2.96931e-06
1.7028e-07
-2.87587e-06
-3.18637e-07
-2.73029e-06
-8.40931e-07
-2.52618e-06
-1.42187e-06
-2.2649e-06
-2.09783e-06
-1.94049e-06
-2.92284e-06
-1.6102e-06
-3.91497e-06
-1.30302e-06
-5.50533e-06
-9.98348e-07
-7.95469e-06
-1.01708e-05
-7.59059e-07
5.18348e-06
-1.34904e-06
6.4109e-06
-1.74197e-06
6.38066e-06
-1.91992e-06
5.4902e-06
-2.02327e-06
4.26993e-06
-2.12578e-06
3.31587e-06
-2.23344e-06
2.52007e-06
-2.31201e-06
1.85707e-06
-2.35671e-06
1.23394e-06
-2.35475e-06
6.70263e-07
-2.31134e-06
1.26873e-07
-2.23063e-06
-3.99352e-07
-2.10838e-06
-9.63181e-07
-1.93752e-06
-1.59273e-06
-1.72004e-06
-2.3153e-06
-1.45134e-06
-3.19154e-06
-1.17898e-06
-4.18733e-06
-9.5954e-07
-5.72477e-06
-7.43772e-07
-8.17046e-06
-1.09146e-05
-4.48833e-07
5.63232e-06
-8.4713e-07
6.80919e-06
-1.12623e-06
6.65976e-06
-1.27121e-06
5.63518e-06
-1.38843e-06
4.38716e-06
-1.51011e-06
3.43754e-06
-1.62656e-06
2.63652e-06
-1.70942e-06
1.93992e-06
-1.7536e-06
1.27812e-06
-1.75258e-06
6.69247e-07
-1.718e-06
9.22902e-08
-1.65423e-06
-4.63122e-07
-1.55998e-06
-1.05743e-06
-1.42706e-06
-1.72565e-06
-1.25542e-06
-2.48695e-06
-1.03986e-06
-3.40711e-06
-7.99011e-07
-4.42818e-06
-6.25515e-07
-5.89827e-06
-5.53612e-07
-8.24236e-06
-1.14682e-05
-2.02277e-07
5.83459e-06
-4.16457e-07
7.02337e-06
-5.79411e-07
6.82271e-06
-6.94674e-07
5.75044e-06
-8.14217e-07
4.5067e-06
-9.33256e-07
3.55658e-06
-1.04481e-06
2.74808e-06
-1.12284e-06
2.01795e-06
-1.16432e-06
1.3196e-06
-1.16836e-06
6.73285e-07
-1.1492e-06
7.31288e-08
-1.10815e-06
-5.04171e-07
-1.04817e-06
-1.1174e-06
-9.60755e-07
-1.81307e-06
-8.50055e-07
-2.59765e-06
-7.07729e-07
-3.54943e-06
-5.55256e-07
-4.58065e-06
-4.48176e-07
-6.00534e-06
-4.04683e-07
-8.28586e-06
-1.18729e-05
6.15722e-08
5.77302e-06
-2.15518e-08
7.1065e-06
-8.52438e-08
6.8864e-06
-1.62364e-07
5.82756e-06
-2.60486e-07
4.60482e-06
-3.65009e-07
3.66111e-06
-4.5699e-07
2.84006e-06
-5.2235e-07
2.08331e-06
-5.6153e-07
1.35878e-06
-5.768e-07
6.88554e-07
-5.79194e-07
7.55227e-08
-5.65789e-07
-5.17575e-07
-5.44963e-07
-1.13823e-06
-5.03302e-07
-1.85473e-06
-4.51606e-07
-2.64934e-06
-3.79652e-07
-3.62139e-06
-2.87033e-07
-4.67327e-06
-2.45398e-07
-6.04698e-06
-3.17987e-07
-8.21327e-06
-1.21909e-05
2.98735e-07
5.47429e-06
4.11651e-07
6.99358e-06
4.50538e-07
6.84752e-06
3.75981e-07
5.90212e-06
2.9403e-07
4.68677e-06
2.16552e-07
3.73858e-06
1.52493e-07
2.90412e-06
1.02988e-07
2.13282e-06
6.60712e-08
1.3957e-06
3.599e-08
7.18635e-07
1.00963e-08
1.01416e-07
-1.26876e-08
-4.94791e-07
-2.30597e-08
-1.12786e-06
-5.61059e-08
-1.82168e-06
-2.12431e-08
-2.6842e-06
-9.23593e-08
-3.55027e-06
-1.89422e-08
-4.74668e-06
-1.22311e-07
-5.94361e-06
-2.27637e-07
-8.10794e-06
-1.24185e-05
5.35068e-07
4.93922e-06
8.30252e-07
6.6984e-06
9.81778e-07
6.69599e-06
9.31256e-07
5.95264e-06
8.67337e-07
4.75069e-06
8.21125e-07
3.7848e-06
7.84164e-07
2.94108e-06
7.51629e-07
2.16535e-06
7.13644e-07
1.43368e-06
6.70112e-07
7.62168e-07
6.21482e-07
1.50046e-07
5.70897e-07
-4.44206e-07
5.10443e-07
-1.0674e-06
4.53187e-07
-1.76443e-06
3.72513e-07
-2.60353e-06
2.84744e-07
-3.4625e-06
2.10755e-07
-4.6727e-06
1.0471e-09
-5.7339e-06
-1.68742e-07
-7.93815e-06
-1.25872e-05
8.1277e-07
4.12645e-06
1.23436e-06
6.27681e-06
1.50205e-06
6.4283e-06
1.53428e-06
5.92041e-06
1.48045e-06
4.80452e-06
1.46061e-06
3.80463e-06
1.45429e-06
2.9474e-06
1.44193e-06
2.17771e-06
1.40884e-06
1.46678e-06
1.35563e-06
8.15382e-07
1.28496e-06
2.20706e-07
1.20285e-06
-3.62092e-07
1.10417e-06
-9.68723e-07
9.93687e-07
-1.65394e-06
8.32001e-07
-2.44184e-06
6.896e-07
-3.3201e-06
4.58929e-07
-4.44202e-06
1.70499e-07
-5.44547e-06
-2.88004e-08
-7.73885e-06
-1.2616e-05
1.0323e-06
3.09415e-06
1.652e-06
5.6571e-06
2.01255e-06
6.06775e-06
2.16833e-06
5.76463e-06
2.15126e-06
4.82159e-06
2.15562e-06
3.80027e-06
2.17293e-06
2.93009e-06
2.17919e-06
2.17144e-06
2.15532e-06
1.49065e-06
2.10083e-06
8.69868e-07
2.01864e-06
3.02901e-07
1.91207e-06
-2.55528e-07
1.77505e-06
-8.31697e-07
1.60948e-06
-1.48837e-06
1.38842e-06
-2.22078e-06
1.16228e-06
-3.09396e-06
7.99182e-07
-4.07893e-06
4.01507e-07
-5.0478e-06
8.34086e-08
-7.42075e-06
-1.25326e-05
1.27791e-06
1.81624e-06
1.94848e-06
4.98654e-06
2.41227e-06
5.60396e-06
2.76715e-06
5.40976e-06
2.90019e-06
4.68855e-06
2.95382e-06
3.74664e-06
2.98779e-06
2.89612e-06
3.00686e-06
2.15238e-06
2.99462e-06
1.50289e-06
2.94573e-06
9.18761e-07
2.85734e-06
3.91294e-07
2.73193e-06
-1.30124e-07
2.55797e-06
-6.57737e-07
2.34135e-06
-1.27176e-06
2.05306e-06
-1.93249e-06
1.7116e-06
-2.7525e-06
1.19921e-06
-3.56654e-06
6.34776e-07
-4.48336e-06
2.33234e-07
-7.01921e-06
-1.22994e-05
1.14557e-06
6.70673e-07
2.07912e-06
4.05299e-06
2.71424e-06
4.96883e-06
3.26589e-06
4.85811e-06
3.62399e-06
4.33045e-06
3.81927e-06
3.55136e-06
3.92752e-06
2.78786e-06
3.98723e-06
2.09267e-06
3.99728e-06
1.49284e-06
3.96114e-06
9.54904e-07
3.86511e-06
4.87322e-07
3.72831e-06
6.6742e-09
3.51512e-06
-4.44545e-07
3.23989e-06
-9.96526e-07
2.85602e-06
-1.54862e-06
2.36317e-06
-2.25965e-06
1.69167e-06
-2.89504e-06
9.57172e-07
-3.74886e-06
4.54567e-07
-6.51661e-06
-1.18448e-05
5.52033e-07
1.1864e-07
1.69298e-06
2.91204e-06
2.685e-06
3.97681e-06
3.53587e-06
4.00723e-06
4.1928e-06
3.67352e-06
4.64458e-06
3.09958e-06
4.93791e-06
2.49454e-06
5.11779e-06
1.91279e-06
5.1953e-06
1.41533e-06
5.20449e-06
9.45718e-07
5.12737e-06
5.64432e-07
4.96232e-06
1.71733e-07
4.6923e-06
-1.74533e-07
4.32743e-06
-6.31655e-07
3.79765e-06
-1.01884e-06
3.11173e-06
-1.57374e-06
2.2372e-06
-2.02051e-06
1.34418e-06
-2.85584e-06
7.92383e-07
-5.96481e-06
-1.10524e-05
-2.48427e-07
3.67068e-07
9.8386e-07
1.67975e-06
2.16349e-06
2.79718e-06
3.33824e-06
2.83248e-06
4.31327e-06
2.6985e-06
5.0823e-06
2.33055e-06
5.63713e-06
1.93971e-06
6.03842e-06
1.5115e-06
6.25911e-06
1.19463e-06
6.36269e-06
8.42141e-07
6.31253e-06
6.14589e-07
6.17291e-06
3.11357e-07
5.87201e-06
1.26369e-07
5.42369e-06
-1.83339e-07
4.7846e-06
-3.79753e-07
3.94863e-06
-7.37764e-07
2.88685e-06
-9.58728e-07
1.99981e-06
-1.9688e-06
1.34008e-06
-5.30508e-06
-9.71237e-06
-1.26157e-06
1.62864e-06
-4.30807e-07
8.48983e-07
1.10042e-06
1.26596e-06
2.5715e-06
1.3614e-06
3.86024e-06
1.40975e-06
4.92377e-06
1.26703e-06
5.72662e-06
1.13686e-06
6.32542e-06
9.127e-07
6.72128e-06
7.98777e-07
6.94957e-06
6.13848e-07
7.01595e-06
5.48208e-07
6.92856e-06
3.98745e-07
6.69875e-06
3.56184e-07
6.30034e-06
2.15071e-07
5.75747e-06
1.63118e-07
5.06759e-06
-4.78825e-08
4.37076e-06
-2.61901e-07
3.76142e-06
-1.35946e-06
2.56871e-06
-4.11237e-06
-7.14366e-06
1.62864e-06
2.47762e-06
3.74358e-06
5.10498e-06
6.51473e-06
7.78176e-06
8.91862e-06
9.83132e-06
1.06301e-05
1.12439e-05
1.17922e-05
1.21909e-05
1.25471e-05
1.27622e-05
1.29253e-05
1.28774e-05
1.26155e-05
1.1256e-05
7.14366e-06
)
;

boundaryField
{
    movingWall
    {
        type            calculated;
        value           uniform 0;
    }
    fixedWalls
    {
        type            calculated;
        value           uniform 0;
    }
    frontAndBack
    {
        type            empty;
        value           nonuniform 0();
    }
}


// ************************************************************************* //
