/*--------------------------------*- C++ -*----------------------------------*\
| =========                 |                                                 |
| \\      /  F ield         | OpenFOAM: The Open Source CFD Toolbox           |
|  \\    /   O peration     | Version:  5.0                                   |
|   \\  /    A nd           | Web:      www.OpenFOAM.org                      |
|    \\/     M anipulation  |                                                 |
\*---------------------------------------------------------------------------*/
FoamFile
{
    version     2.0;
    format      ascii;
    class       volVectorField;
    location    "6.5";
    object      U;
}
// * * * * * * * * * * * * * * * * * * * * * * * * * * * * * * * * * * * * * //

dimensions      [0 1 -1 0 0 0 0];

internalField   nonuniform List<vector> 
400
(
(0.00235149 -0.0032499 0)
(0.00670264 -0.00151664 0)
(-0.00221901 0.00128642 0)
(-0.0133871 0.00806213 0)
(-0.0544744 0.0179261 0)
(-0.0883758 0.0145459 0)
(-0.114283 0.0134826 0)
(-0.134997 0.0111259 0)
(-0.149381 0.00921256 0)
(-0.161038 0.00735602 0)
(-0.168014 0.00556374 0)
(-0.172491 0.00414806 0)
(-0.174008 0.00239612 0)
(-0.171776 -0.00051077 0)
(-0.163431 -0.00295997 0)
(-0.149336 -0.00786437 0)
(-0.126348 -0.0129343 0)
(-0.0948195 -0.0189419 0)
(-0.0561654 -0.019349 0)
(-0.013964 -0.00551311 0)
(5.90376e-05 -0.00697148 0)
(-0.00819455 0.0059599 0)
(-0.0314704 0.0244731 0)
(-0.0703219 0.0462424 0)
(-0.100227 0.0452135 0)
(-0.120853 0.0398001 0)
(-0.137064 0.0332292 0)
(-0.151042 0.0236485 0)
(-0.160447 0.0175501 0)
(-0.167665 0.0104696 0)
(-0.171091 0.00566315 0)
(-0.172837 -0.0001726 0)
(-0.170816 -0.00488778 0)
(-0.16726 -0.0112229 0)
(-0.158824 -0.0181837 0)
(-0.146492 -0.0291152 0)
(-0.127052 -0.042867 0)
(-0.100545 -0.061987 0)
(-0.066898 -0.0765507 0)
(-0.0206026 -0.0565756 0)
(-0.00618659 0.00632008 0)
(-0.0290719 0.0342523 0)
(-0.0618193 0.0598407 0)
(-0.0896495 0.0694761 0)
(-0.106936 0.063367 0)
(-0.118599 0.0544857 0)
(-0.128705 0.0416579 0)
(-0.13338 0.0329931 0)
(-0.132983 0.0235582 0)
(-0.133283 0.0158281 0)
(-0.131029 0.00846229 0)
(-0.130004 0.00175102 0)
(-0.127708 -0.00496797 0)
(-0.124301 -0.0122826 0)
(-0.11894 -0.0216286 0)
(-0.110929 -0.0350692 0)
(-0.0991742 -0.0551795 0)
(-0.0808415 -0.0826043 0)
(-0.0587842 -0.110748 0)
(-0.0222009 -0.110657 0)
(-0.00990572 0.0306371 0)
(-0.0400281 0.0632173 0)
(-0.068741 0.0836398 0)
(-0.086223 0.0854844 0)
(-0.0956846 0.0748927 0)
(-0.100048 0.0617035 0)
(-0.0996771 0.0469852 0)
(-0.0972531 0.0344766 0)
(-0.0983904 0.0227874 0)
(-0.0974735 0.0138394 0)
(-0.0971545 0.00549587 0)
(-0.0953927 -0.00166576 0)
(-0.0929203 -0.00911495 0)
(-0.0892903 -0.0171642 0)
(-0.0846507 -0.0271198 0)
(-0.078816 -0.0405816 0)
(-0.0711021 -0.0610434 0)
(-0.0576968 -0.0942712 0)
(-0.0445008 -0.13318 0)
(-0.0172509 -0.14354 0)
(-0.00988855 0.054022 0)
(-0.0411387 0.0876074 0)
(-0.0600113 0.100315 0)
(-0.0719515 0.0965565 0)
(-0.0746341 0.0807606 0)
(-0.0746289 0.064016 0)
(-0.0741829 0.0473185 0)
(-0.0750866 0.0345434 0)
(-0.0761419 0.0230413 0)
(-0.0761832 0.0136932 0)
(-0.0759351 0.00481111 0)
(-0.0743451 -0.00362067 0)
(-0.0718467 -0.01262 0)
(-0.0679471 -0.0224109 0)
(-0.0629737 -0.0338996 0)
(-0.0571223 -0.0480538 0)
(-0.0513458 -0.0672293 0)
(-0.0399246 -0.0996439 0)
(-0.038398 -0.149286 0)
(-0.00804179 -0.174581 0)
(-0.00863035 0.0768884 0)
(-0.0340602 0.107272 0)
(-0.0461601 0.113488 0)
(-0.0553634 0.10352 0)
(-0.0546138 0.0831319 0)
(-0.0555307 0.0643145 0)
(-0.056916 0.0478017 0)
(-0.0589464 0.0351296 0)
(-0.0600324 0.0234728 0)
(-0.060433 0.0134962 0)
(-0.0599916 0.00387827 0)
(-0.0586235 -0.0055071 0)
(-0.0562551 -0.0155375 0)
(-0.0527307 -0.0266758 0)
(-0.0479637 -0.0396537 0)
(-0.0419903 -0.0553386 0)
(-0.0376319 -0.0746268 0)
(-0.0246177 -0.106001 0)
(-0.0292661 -0.15491 0)
(-0.00489362 -0.193549 0)
(-0.00668153 0.0955445 0)
(-0.024847 0.121053 0)
(-0.0330621 0.122847 0)
(-0.0398445 0.107698 0)
(-0.0383137 0.084318 0)
(-0.0411463 0.0652644 0)
(-0.0433681 0.049237 0)
(-0.0457035 0.036211 0)
(-0.046813 0.0240762 0)
(-0.0472052 0.0132639 0)
(-0.0466805 0.00284547 0)
(-0.0455274 -0.00739867 0)
(-0.0435007 -0.0183316 0)
(-0.0405856 -0.0304842 0)
(-0.0366702 -0.0445135 0)
(-0.0308878 -0.0614855 0)
(-0.0290783 -0.0810549 0)
(-0.0157144 -0.112369 0)
(-0.025421 -0.161944 0)
(0.000455851 -0.211844 0)
(-0.00332776 0.107811 0)
(-0.0155338 0.132064 0)
(-0.0213865 0.130348 0)
(-0.0263214 0.111064 0)
(-0.0251692 0.0866181 0)
(-0.029045 0.0674486 0)
(-0.0313332 0.0513908 0)
(-0.0336911 0.0377402 0)
(-0.0347435 0.0248938 0)
(-0.0350843 0.0131896 0)
(-0.0346494 0.00205521 0)
(-0.0337529 -0.00888912 0)
(-0.0321869 -0.0205428 0)
(-0.0299417 -0.0335798 0)
(-0.0272473 -0.0484261 0)
(-0.0213976 -0.0664712 0)
(-0.0221781 -0.08605 0)
(-0.00732056 -0.115783 0)
(-0.0203798 -0.163295 0)
(0.00207543 -0.222783 0)
(-0.000848706 0.115604 0)
(-0.00786227 0.138143 0)
(-0.0108253 0.134459 0)
(-0.014288 0.113589 0)
(-0.0137105 0.0883618 0)
(-0.017807 0.0695273 0)
(-0.0198456 0.0535178 0)
(-0.0220237 0.0393096 0)
(-0.0229333 0.0257462 0)
(-0.023257 0.0132005 0)
(-0.0230801 0.00148749 0)
(-0.0225559 -0.00993188 0)
(-0.0215862 -0.0220626 0)
(-0.0200027 -0.0357873 0)
(-0.0189966 -0.0512627 0)
(-0.0131933 -0.0702412 0)
(-0.0173355 -0.0906475 0)
(-0.00212537 -0.120044 0)
(-0.0185741 -0.165656 0)
(0.00557396 -0.23434 0)
(0.0026118 0.11695 0)
(-0.000382116 0.142596 0)
(-0.000940622 0.137875 0)
(-0.00326034 0.115797 0)
(-0.00308116 0.0914635 0)
(-0.00668571 0.0724535 0)
(-0.00828826 0.0560503 0)
(-0.0100718 0.0410758 0)
(-0.0108358 0.0267463 0)
(-0.0112564 0.0134863 0)
(-0.0114686 0.00132306 0)
(-0.011416 -0.0104314 0)
(-0.0111846 -0.0228368 0)
(-0.0101081 -0.0369812 0)
(-0.0109944 -0.0529326 0)
(-0.00512844 -0.0719256 0)
(-0.0124441 -0.0931758 0)
(0.00372136 -0.120083 0)
(-0.0162833 -0.165329 0)
(0.006626 -0.240675 0)
(0.0054533 0.114093 0)
(0.00604857 0.142162 0)
(0.00864535 0.137983 0)
(0.00758299 0.117224 0)
(0.00767997 0.0924001 0)
(0.00472016 0.0735638 0)
(0.00364477 0.0572236 0)
(0.00240346 0.0420465 0)
(0.00171567 0.0274732 0)
(0.00110497 0.0139753 0)
(0.000451672 0.00161769 0)
(1.56364e-05 -0.0103129 0)
(-0.000601725 -0.0229014 0)
(-0.000101007 -0.0370879 0)
(-0.00269834 -0.0538255 0)
(0.00244114 -0.0720632 0)
(-0.00771319 -0.0954825 0)
(0.00810535 -0.120269 0)
(-0.0155303 -0.164495 0)
(0.00953655 -0.247351 0)
(0.00719142 0.106574 0)
(0.0131468 0.139586 0)
(0.0179951 0.137231 0)
(0.01864 0.118932 0)
(0.0188462 0.095197 0)
(0.0166606 0.075847 0)
(0.0160046 0.0589548 0)
(0.0153274 0.0433852 0)
(0.014809 0.0285389 0)
(0.0140997 0.0148671 0)
(0.013056 0.00242526 0)
(0.012074 -0.00955696 0)
(0.0106887 -0.0221898 0)
(0.010277 -0.0361728 0)
(0.0067168 -0.0531922 0)
(0.0103275 -0.070672 0)
(-0.00166531 -0.094617 0)
(0.0134573 -0.116767 0)
(-0.0151793 -0.161471 0)
(0.0115554 -0.250253 0)
(0.0109182 0.0946174 0)
(0.0197254 0.131908 0)
(0.0273634 0.132311 0)
(0.0297597 0.119569 0)
(0.030758 0.0941313 0)
(0.0293907 0.0749772 0)
(0.0291517 0.0583331 0)
(0.0290053 0.0430363 0)
(0.0287076 0.0286903 0)
(0.0279818 0.0155372 0)
(0.0265599 0.00352141 0)
(0.0251646 -0.00823051 0)
(0.0228847 -0.0205645 0)
(0.0217232 -0.0344461 0)
(0.0170788 -0.0507921 0)
(0.0186308 -0.0685295 0)
(0.0054077 -0.0915459 0)
(0.0177995 -0.112968 0)
(-0.014663 -0.156543 0)
(0.0153509 -0.252229 0)
(0.0124006 0.0746499 0)
(0.0262384 0.122839 0)
(0.0376148 0.126443 0)
(0.0409179 0.118768 0)
(0.0435374 0.0974971 0)
(0.0431624 0.0763546 0)
(0.0432731 0.0590865 0)
(0.0435811 0.0438989 0)
(0.0435406 0.0300069 0)
(0.0429719 0.0172292 0)
(0.0412994 0.00547039 0)
(0.0397829 -0.00609893 0)
(0.0365723 -0.0180705 0)
(0.0348685 -0.0315797 0)
(0.0290188 -0.0469279 0)
(0.0286493 -0.0645204 0)
(0.0145685 -0.0852501 0)
(0.0232617 -0.105191 0)
(-0.0129481 -0.151625 0)
(0.0189775 -0.250934 0)
(0.0173351 0.0533263 0)
(0.0309501 0.107379 0)
(0.0449116 0.117399 0)
(0.0513713 0.111851 0)
(0.0562432 0.0956644 0)
(0.0581501 0.0748699 0)
(0.059179 0.0571181 0)
(0.0600017 0.0421153 0)
(0.0601553 0.0290698 0)
(0.0599444 0.0172925 0)
(0.0580197 0.0065718 0)
(0.0566514 -0.00411233 0)
(0.0524572 -0.0150456 0)
(0.0504041 -0.0276711 0)
(0.0431 -0.0415862 0)
(0.0408397 -0.0585187 0)
(0.0255487 -0.0764958 0)
(0.0287938 -0.0957953 0)
(-0.01066 -0.144215 0)
(0.0248292 -0.249675 0)
(0.0120206 0.0164972 0)
(0.0344172 0.091437 0)
(0.0496713 0.107746 0)
(0.0598114 0.105624 0)
(0.067797 0.0938332 0)
(0.0735433 0.0759935 0)
(0.0769236 0.0586141 0)
(0.0791816 0.0433233 0)
(0.0797745 0.030388 0)
(0.0803843 0.0190171 0)
(0.0780756 0.00904255 0)
(0.0770928 -0.000823707 0)
(0.0718512 -0.010601 0)
(0.0694439 -0.0221933 0)
(0.0603402 -0.0343616 0)
(0.0559524 -0.0497635 0)
(0.0387938 -0.0644179 0)
(0.035445 -0.0823571 0)
(-0.00601603 -0.136574 0)
(0.0314204 -0.246413 0)
(-0.00174311 0.00779213 0)
(0.0251689 0.0655194 0)
(0.0465707 0.0888605 0)
(0.0620786 0.0902039 0)
(0.0759884 0.0823223 0)
(0.0870053 0.0691583 0)
(0.0948047 0.0552731 0)
(0.100646 0.0418306 0)
(0.102667 0.029956 0)
(0.105179 0.0191906 0)
(0.102896 0.0100691 0)
(0.102549 0.00102795 0)
(0.0960191 -0.00715753 0)
(0.0926315 -0.0168482 0)
(0.0810679 -0.0260204 0)
(0.0735377 -0.0382968 0)
(0.0533162 -0.0489825 0)
(0.0424266 -0.0671495 0)
(0.000904512 -0.129588 0)
(0.0411344 -0.243174 0)
(-0.0185645 -0.00350915 0)
(0.00990739 0.0513065 0)
(0.0336727 0.0735223 0)
(0.0550029 0.0751305 0)
(0.0746756 0.0698067 0)
(0.0931006 0.0595703 0)
(0.105617 0.0487592 0)
(0.117366 0.0386186 0)
(0.121966 0.0300511 0)
(0.127594 0.0213841 0)
(0.126327 0.0146096 0)
(0.126835 0.00703479 0)
(0.120112 0.00134552 0)
(0.115648 -0.00639604 0)
(0.102206 -0.0122777 0)
(0.0920733 -0.0216877 0)
(0.0683909 -0.0290808 0)
(0.0513775 -0.0499132 0)
(0.0155832 -0.123603 0)
(0.0541103 -0.231757 0)
(-0.0250456 0.0222391 0)
(-0.0228227 0.0180091 0)
(0.00864038 0.038148 0)
(0.0367752 0.0402759 0)
(0.062869 0.0399118 0)
(0.0877912 0.0355754 0)
(0.105165 0.0307244 0)
(0.120956 0.0236714 0)
(0.129949 0.0193633 0)
(0.137537 0.0135594 0)
(0.140038 0.0109243 0)
(0.140524 0.00590031 0)
(0.136723 0.00410428 0)
(0.131888 -0.000285109 0)
(0.120146 -0.00207449 0)
(0.110497 -0.00794885 0)
(0.0877327 -0.0125459 0)
(0.0772772 -0.0383383 0)
(0.055276 -0.109735 0)
(0.0785492 -0.181553 0)
(0.0363779 0.0333869 0)
(0.0399745 0.0190522 0)
(0.0565284 0.0168912 0)
(0.0887312 0.0168962 0)
(0.113523 0.0190732 0)
(0.14247 0.0176601 0)
(0.164534 0.0173288 0)
(0.18721 0.0147781 0)
(0.203781 0.0140081 0)
(0.219442 0.0118241 0)
(0.230663 0.0112771 0)
(0.24049 0.00954369 0)
(0.247576 0.00921908 0)
(0.252518 0.00783566 0)
(0.256639 0.00772548 0)
(0.256924 0.00594124 0)
(0.252545 0.00474366 0)
(0.239413 -0.00238305 0)
(0.200485 -0.0146513 0)
(0.1483 -0.0347266 0)
)
;

boundaryField
{
    movingWall
    {
        type            fixedValue;
        value           uniform (1 0 0);
    }
    fixedWalls
    {
        type            noSlip;
    }
    frontAndBack
    {
        type            empty;
    }
}


// ************************************************************************* //
