/*--------------------------------*- C++ -*----------------------------------*\
| =========                 |                                                 |
| \\      /  F ield         | OpenFOAM: The Open Source CFD Toolbox           |
|  \\    /   O peration     | Version:  5.0                                   |
|   \\  /    A nd           | Web:      www.OpenFOAM.org                      |
|    \\/     M anipulation  |                                                 |
\*---------------------------------------------------------------------------*/
FoamFile
{
    version     2.0;
    format      ascii;
    class       volScalarField;
    location    "2";
    object      p;
}
// * * * * * * * * * * * * * * * * * * * * * * * * * * * * * * * * * * * * * //

dimensions      [0 2 -2 0 0 0 0];

internalField   nonuniform List<scalar> 
400
(
3.34174e-08
-4.78952e-06
-1.56781e-05
-3.66445e-05
-7.34034e-05
-0.000132923
-0.00021931
-0.000323127
-0.000406833
-0.000445277
-0.00059618
-0.00125968
-0.00214375
-0.00236786
-0.00165026
0.000154862
0.00278436
0.00577059
0.00828544
0.00956851
1.01317e-05
7.84522e-06
1.89834e-06
-1.13446e-05
-3.7318e-05
-8.41545e-05
-0.000162632
-0.000281403
-0.000450488
-0.000743035
-0.00136545
-0.00238806
-0.00333636
-0.0035339
-0.00286936
-0.00123087
0.00123703
0.00408953
0.00677719
0.00833622
-8.86378e-06
-8.63156e-06
-1.05298e-05
-1.78951e-05
-3.64855e-05
-7.7108e-05
-0.000160213
-0.000321192
-0.000632209
-0.00127898
-0.00249073
-0.00406261
-0.00541144
-0.00576356
-0.00501808
-0.00346643
-0.0012818
0.00123824
0.00388833
0.00559763
-6.19618e-05
-6.14314e-05
-6.32263e-05
-7.0772e-05
-9.13494e-05
-0.000139917
-0.000248679
-0.000487004
-0.000992976
-0.00199596
-0.0037346
-0.00582829
-0.00743178
-0.00772674
-0.00705159
-0.0055564
-0.00359554
-0.00147827
0.000477118
0.00233013
-0.00015252
-0.000154469
-0.000161554
-0.000177705
-0.000212639
-0.000286054
-0.000438898
-0.000765984
-0.00148056
-0.00274178
-0.00478822
-0.00720742
-0.00906492
-0.00959737
-0.0090456
-0.0075482
-0.00569647
-0.0038015
-0.00224512
-0.000654276
-0.000274608
-0.000280877
-0.000297442
-0.000328325
-0.000385643
-0.000492888
-0.000695841
-0.00108961
-0.00190565
-0.00335623
-0.00546541
-0.00799501
-0.0100818
-0.0108741
-0.0104873
-0.00898302
-0.00709712
-0.00523211
-0.00398552
-0.00262503
-0.000416314
-0.000427613
-0.000454632
-0.0005013
-0.000580763
-0.000717344
-0.000956799
-0.00138187
-0.00215896
-0.00360769
-0.00558694
-0.00797905
-0.0100465
-0.0109199
-0.0105896
-0.00906541
-0.00728335
-0.00557411
-0.00475282
-0.00371215
-0.000564628
-0.000580625
-0.000616021
-0.000674841
-0.000769552
-0.000922056
-0.00117242
-0.00158676
-0.00226358
-0.00349166
-0.00516767
-0.00711244
-0.00884228
-0.00960572
-0.00932529
-0.00804581
-0.00658604
-0.00517821
-0.00484921
-0.00399681
-0.000708938
-0.000727992
-0.000767813
-0.000832688
-0.000932811
-0.00108423
-0.00132074
-0.0016854
-0.00225194
-0.00314187
-0.00434846
-0.00567465
-0.00685101
-0.00738729
-0.0072842
-0.0064614
-0.00543634
-0.00441802
-0.00440747
-0.00368551
-0.00084325
-0.000861873
-0.000901613
-0.000965812
-0.00106301
-0.00119992
-0.00140891
-0.00170885
-0.00213834
-0.00273471
-0.00350079
-0.00431552
-0.00505804
-0.00541052
-0.0053478
-0.004843
-0.00419576
-0.00350929
-0.00364984
-0.00310629
-0.000961739
-0.000977921
-0.00101357
-0.0010712
-0.00115674
-0.00127799
-0.00144928
-0.00168251
-0.00199125
-0.00237969
-0.00285109
-0.0033237
-0.00374703
-0.00393788
-0.00387247
-0.00355585
-0.0031757
-0.00270915
-0.00296853
-0.00261441
-0.00106401
-0.0010769
-0.00110438
-0.00115155
-0.00122219
-0.00132178
-0.00145697
-0.00163264
-0.00185223
-0.00210722
-0.00240292
-0.00266586
-0.00288714
-0.00298213
-0.00290598
-0.00270828
-0.00252177
-0.00212693
-0.00263169
-0.00214861
-0.00115317
-0.00115977
-0.00117657
-0.00121005
-0.00126395
-0.00134132
-0.0014451
-0.00157638
-0.00173484
-0.00190885
-0.0021025
-0.00226145
-0.00238398
-0.00243507
-0.00236317
-0.00222118
-0.00217483
-0.00165611
-0.00247936
-0.00162376
-0.00123112
-0.00122803
-0.00123208
-0.00125076
-0.00128767
-0.00134466
-0.00142303
-0.00152188
-0.00163968
-0.00176516
-0.00189948
-0.00200636
-0.00208024
-0.00210581
-0.0020531
-0.00194106
-0.00202885
-0.00129705
-0.00241345
-0.00112021
-0.00130326
-0.00128726
-0.00127413
-0.00127601
-0.00129628
-0.00133614
-0.00139529
-0.00147177
-0.0015632
-0.00165978
-0.00176032
-0.00184046
-0.00189348
-0.00191186
-0.00187754
-0.0017812
-0.00195476
-0.00111393
-0.00245704
-0.0005591
-0.00137747
-0.0013393
-0.00130525
-0.00128921
-0.00129447
-0.00132034
-0.00136543
-0.00142707
-0.00150215
-0.00158209
-0.00166461
-0.00173232
-0.00177736
-0.00179853
-0.0017802
-0.0016709
-0.00188804
-0.00106241
-0.00246666
5.5145e-05
-0.00147175
-0.00139206
-0.00132794
-0.00129108
-0.00128202
-0.00129746
-0.00133311
-0.00138627
-0.00145232
-0.00152412
-0.00159794
-0.0016612
-0.00170842
-0.00173971
-0.00174773
-0.00167539
-0.00189038
-0.0012246
-0.0023336
0.000882997
-0.00162934
-0.00144317
-0.00134459
-0.00129013
-0.00127019
-0.00127823
-0.00130706
-0.00135599
-0.00141744
-0.00148631
-0.00155652
-0.00161832
-0.00166716
-0.00169947
-0.00170381
-0.00162612
-0.00171889
-0.00120286
-0.00179326
0.00315927
-0.00200818
-0.00159496
-0.0014275
-0.00132008
-0.00128017
-0.00128331
-0.00130475
-0.00135357
-0.00140919
-0.00147914
-0.00154439
-0.00160976
-0.00165761
-0.00170093
-0.00172226
-0.00177646
-0.0019891
-0.00147624
0.0010847
0.0125566
-0.00307192
-0.00109104
-0.000934961
-0.00101418
-0.00105335
-0.00107501
-0.0011203
-0.00118134
-0.00126414
-0.00134533
-0.00143711
-0.00151555
-0.00159918
-0.00165772
-0.00167162
-0.0014736
-0.000706073
0.00256703
0.0133533
0.0345982
)
;

boundaryField
{
    movingWall
    {
        type            zeroGradient;
    }
    fixedWalls
    {
        type            zeroGradient;
    }
    frontAndBack
    {
        type            empty;
    }
}


// ************************************************************************* //
