/*--------------------------------*- C++ -*----------------------------------*\
| =========                 |                                                 |
| \\      /  F ield         | OpenFOAM: The Open Source CFD Toolbox           |
|  \\    /   O peration     | Version:  5.0                                   |
|   \\  /    A nd           | Web:      www.OpenFOAM.org                      |
|    \\/     M anipulation  |                                                 |
\*---------------------------------------------------------------------------*/
FoamFile
{
    version     2.0;
    format      ascii;
    class       surfaceScalarField;
    location    "2";
    object      phi;
}
// * * * * * * * * * * * * * * * * * * * * * * * * * * * * * * * * * * * * * //

dimensions      [0 3 -1 0 0 0 0];

internalField   nonuniform List<scalar> 
760
(
-5.9111e-08
5.91078e-08
-1.39172e-07
8.00611e-08
-2.2035e-07
8.11779e-08
-3.02048e-07
8.16971e-08
-3.87866e-07
8.58181e-08
-4.89638e-07
1.01772e-07
-6.39866e-07
1.50228e-07
-9.08646e-07
2.6878e-07
-1.41355e-06
5.04899e-07
-2.29699e-06
8.83442e-07
-3.61377e-06
1.31678e-06
-5.05726e-06
1.44349e-06
-6.1301e-06
1.07284e-06
-6.58333e-06
4.53233e-07
-6.56214e-06
-2.11915e-08
-5.99907e-06
-5.63066e-07
-4.98837e-06
-1.0107e-06
-3.54638e-06
-1.44199e-06
-1.63826e-06
-1.90813e-06
-1.63826e-06
-1.33908e-07
1.93015e-07
-3.17044e-07
2.63198e-07
-5.13365e-07
2.77498e-07
-7.29125e-07
2.97458e-07
-9.78513e-07
3.35205e-07
-1.28715e-06
4.10412e-07
-1.70248e-06
5.65551e-07
-2.30026e-06
8.66564e-07
-3.1596e-06
1.36424e-06
-4.2696e-06
1.99344e-06
-5.41265e-06
2.45983e-06
-6.29838e-06
2.32923e-06
-6.8171e-06
1.59156e-06
-6.9756e-06
6.11732e-07
-6.69192e-06
-3.04876e-07
-6.1056e-06
-1.14939e-06
-5.15145e-06
-1.96484e-06
-3.87055e-06
-2.7229e-06
-2.11589e-06
-3.66278e-06
-3.75415e-06
-1.64692e-07
3.57707e-07
-3.87639e-07
4.86145e-07
-6.31917e-07
5.21776e-07
-9.07898e-07
5.73439e-07
-1.23386e-06
6.61165e-07
-1.63611e-06
8.12664e-07
-2.15156e-06
1.081e-06
-2.82367e-06
1.53867e-06
-3.66582e-06
2.20639e-06
-4.58063e-06
2.90825e-06
-5.36953e-06
3.24873e-06
-5.89029e-06
2.84999e-06
-6.05603e-06
1.7573e-06
-5.92312e-06
4.78819e-07
-5.53437e-06
-6.93617e-07
-4.88228e-06
-1.80148e-06
-4.07244e-06
-2.77469e-06
-3.15661e-06
-3.63873e-06
-1.93287e-06
-4.88652e-06
-5.68702e-06
-1.67014e-07
5.24722e-07
-3.93968e-07
7.13098e-07
-6.44416e-07
7.72224e-07
-9.27995e-07
8.57018e-07
-1.26114e-06
9.94305e-07
-1.66374e-06
1.21527e-06
-2.15533e-06
1.57259e-06
-2.7435e-06
2.12684e-06
-3.41526e-06
2.87816e-06
-4.0641e-06
3.55708e-06
-4.54094e-06
3.72557e-06
-4.7892e-06
3.09825e-06
-4.83271e-06
1.80081e-06
-4.68359e-06
3.29696e-07
-4.31891e-06
-1.05829e-06
-3.65717e-06
-2.46322e-06
-2.93068e-06
-3.50118e-06
-2.3054e-06
-4.264e-06
-1.45291e-06
-5.73901e-06
-7.13993e-06
-1.50368e-07
6.7509e-07
-3.58489e-07
9.21219e-07
-5.87142e-07
1.00088e-06
-8.40973e-07
1.11085e-06
-1.12975e-06
1.28308e-06
-1.46193e-06
1.54745e-06
-1.84005e-06
1.95071e-06
-2.25305e-06
2.53984e-06
-2.69335e-06
3.31846e-06
-3.0526e-06
3.91633e-06
-3.29577e-06
3.96874e-06
-3.4544e-06
3.25688e-06
-3.54235e-06
1.88876e-06
-3.47572e-06
2.63065e-07
-3.18353e-06
-1.35047e-06
-2.69224e-06
-2.95452e-06
-2.10852e-06
-4.08489e-06
-1.57365e-06
-4.79888e-06
-1.15748e-06
-6.15518e-06
-8.29741e-06
-1.22445e-07
7.97535e-07
-2.96748e-07
1.09552e-06
-4.86438e-07
1.19057e-06
-6.88359e-07
1.31277e-06
-9.03944e-07
1.49867e-06
-1.12957e-06
1.77308e-06
-1.35229e-06
2.17343e-06
-1.55224e-06
2.73979e-06
-1.70009e-06
3.46631e-06
-1.76335e-06
3.9796e-06
-1.79382e-06
3.9992e-06
-1.87047e-06
3.33353e-06
-1.92857e-06
1.94686e-06
-1.88804e-06
2.22538e-07
-1.71971e-06
-1.51881e-06
-1.47509e-06
-3.19914e-06
-1.1677e-06
-4.39228e-06
-8.57285e-07
-5.10929e-06
-7.22932e-07
-6.28953e-06
-9.02034e-06
-8.8517e-08
8.86052e-07
-2.21884e-07
1.22889e-06
-3.65069e-07
1.33375e-06
-5.06761e-07
1.45446e-06
-6.40926e-07
1.63283e-06
-7.54673e-07
1.88682e-06
-8.21646e-07
2.2404e-06
-7.98975e-07
2.71712e-06
-6.57101e-07
3.32443e-06
-4.73779e-07
3.79628e-06
-2.8241e-07
3.80783e-06
-1.7946e-07
3.23058e-06
-1.45389e-07
1.91279e-06
-1.69827e-07
2.46976e-07
-8.48351e-08
-1.60381e-06
-9.51923e-08
-3.18879e-06
-1.63455e-07
-4.32401e-06
-3.24888e-07
-4.94786e-06
-4.34104e-07
-6.18032e-06
-9.45444e-06
-5.33732e-08
9.39425e-07
-1.45941e-07
1.32146e-06
-2.42272e-07
1.43008e-06
-3.26217e-07
1.53841e-06
-3.86575e-07
1.69319e-06
-4.05341e-07
1.90559e-06
-3.52932e-07
2.18799e-06
-1.75813e-07
2.54e-06
1.76443e-07
2.97218e-06
6.13872e-07
3.35885e-06
1.04844e-06
3.37326e-06
1.40863e-06
2.8704e-06
1.53378e-06
1.78764e-06
1.43988e-06
3.40875e-07
1.23957e-06
-1.4035e-06
9.40246e-07
-2.88946e-06
5.13446e-07
-3.89721e-06
6.23564e-08
-4.49677e-06
-2.21004e-07
-5.89696e-06
-9.67545e-06
-2.1712e-08
9.61137e-07
-7.75645e-08
1.37731e-06
-1.32293e-07
1.48481e-06
-1.67751e-07
1.57387e-06
-1.7023e-07
1.69567e-06
-1.20686e-07
1.85605e-06
1.07504e-08
2.05656e-06
2.47401e-07
2.30335e-06
6.55209e-07
2.56437e-06
1.21942e-06
2.79464e-06
1.78933e-06
2.80335e-06
2.2479e-06
2.41183e-06
2.46711e-06
1.56843e-06
2.42129e-06
3.86695e-07
2.04486e-06
-1.02707e-06
1.51146e-06
-2.35606e-06
8.4288e-07
-3.22863e-06
2.50722e-07
-3.90461e-06
-1.19017e-07
-5.52722e-06
-9.79447e-06
2.86066e-09
9.58277e-07
-2.25675e-08
1.40274e-06
-4.37189e-08
1.50596e-06
-4.22967e-08
1.57244e-06
-4.67262e-09
1.65805e-06
8.20996e-08
1.76927e-06
2.3684e-07
1.90181e-06
4.92701e-07
2.04749e-06
8.7606e-07
2.18101e-06
1.39833e-06
2.27237e-06
1.97188e-06
2.2298e-06
2.44105e-06
1.94266e-06
2.70058e-06
1.3089e-06
2.6841e-06
4.03174e-07
2.32521e-06
-6.68182e-07
1.75857e-06
-1.78942e-06
1.02248e-06
-2.49253e-06
3.55506e-07
-3.23764e-06
-4.19133e-08
-5.1298e-06
-9.83638e-06
1.74253e-08
9.40851e-07
1.55662e-08
1.4046e-06
1.85348e-08
1.50299e-06
4.4517e-08
1.54646e-06
1.03976e-07
1.59859e-06
2.09068e-07
1.66418e-06
3.72915e-07
1.73797e-06
6.11662e-07
1.80874e-06
9.34568e-07
1.85811e-06
1.35223e-06
1.85471e-06
1.82159e-06
1.76043e-06
2.23347e-06
1.53079e-06
2.4772e-06
1.06516e-06
2.50505e-06
3.75319e-07
2.18078e-06
-3.43914e-07
1.64854e-06
-1.25717e-06
9.29695e-07
-1.77369e-06
2.64198e-07
-2.57215e-06
-3.85164e-08
-4.82708e-06
-9.87489e-06
2.37574e-08
9.17094e-07
3.52254e-08
1.39313e-06
5.47001e-08
1.48352e-06
9.53942e-08
1.50577e-06
1.68048e-07
1.52593e-06
2.7952e-07
1.55271e-06
4.3658e-07
1.58091e-06
6.45942e-07
1.59938e-06
9.0868e-07
1.59537e-06
1.22159e-06
1.5418e-06
1.5568e-06
1.42522e-06
1.86816e-06
1.21943e-06
2.05248e-06
8.80846e-07
2.07621e-06
3.51585e-07
1.825e-06
-9.27034e-08
1.37967e-06
-8.1184e-07
7.76626e-07
-1.17065e-06
1.71073e-07
-1.96659e-06
-1.18858e-07
-4.53715e-06
-9.99375e-06
1.91698e-08
8.97924e-07
3.40435e-08
1.37825e-06
6.22205e-08
1.45534e-06
1.14134e-07
1.45385e-06
1.92635e-07
1.44743e-06
3.02818e-07
1.44253e-06
4.47486e-07
1.43624e-06
6.26934e-07
1.41993e-06
8.38702e-07
1.3836e-06
1.07107e-06
1.30943e-06
1.30403e-06
1.19226e-06
1.51943e-06
1.00403e-06
1.65242e-06
7.47854e-07
1.63704e-06
3.66973e-07
1.45436e-06
8.9971e-08
1.09783e-06
-4.55307e-07
6.39707e-07
-7.12532e-07
1.36065e-07
-1.46295e-06
-1.29337e-07
-4.27175e-06
-1.01231e-05
2.97954e-09
8.94945e-07
1.68897e-08
1.36434e-06
4.72934e-08
1.42494e-06
1.04302e-07
1.39685e-06
1.87065e-07
1.36467e-06
2.95019e-07
1.33457e-06
4.27759e-07
1.3035e-06
5.82667e-07
1.26502e-06
7.54963e-07
1.2113e-06
9.32101e-07
1.13229e-06
1.10129e-06
1.02307e-06
1.23971e-06
8.65613e-07
1.32057e-06
6.66994e-07
1.2861e-06
4.01438e-07
1.15808e-06
2.17993e-07
8.86393e-07
-1.83618e-07
5.34256e-07
-3.60395e-07
5.21928e-08
-9.80888e-07
-1.48824e-07
-4.07073e-06
-1.02719e-05
-2.45528e-08
9.19498e-07
-2.05645e-08
1.36036e-06
1.26899e-08
1.39169e-06
7.0849e-08
1.33869e-06
1.53584e-07
1.28193e-06
2.58039e-07
1.23012e-06
3.80736e-07
1.1808e-06
5.17251e-07
1.1285e-06
6.61512e-07
1.06704e-06
8.02786e-07
9.91019e-07
9.32697e-07
8.93162e-07
1.02319e-06
7.75124e-07
1.0682e-06
6.21983e-07
1.04159e-06
4.28048e-07
9.48072e-07
3.11507e-07
7.10412e-07
5.40427e-08
4.67289e-07
-1.17272e-07
5.97192e-08
-5.73318e-07
-5.18394e-08
-3.95918e-06
-1.03238e-05
-8.07503e-08
1.00025e-06
-9.26539e-08
1.37226e-06
-6.12193e-08
1.36025e-06
7.07763e-09
1.27039e-06
1.00585e-07
1.18843e-06
2.09728e-07
1.12097e-06
3.30135e-07
1.0604e-06
4.57075e-07
1.00156e-06
5.84436e-07
9.39683e-07
7.04395e-07
8.7106e-07
8.09617e-07
7.8794e-07
8.77752e-07
7.06989e-07
9.04821e-07
5.94914e-07
8.7221e-07
4.6066e-07
7.87093e-07
3.96624e-07
5.74424e-07
2.66711e-07
4.19518e-07
3.76341e-08
1.0772e-07
-2.6152e-07
1.04419e-07
-3.95587e-06
-1.02193e-05
-1.57548e-07
1.1578e-06
-1.92262e-07
1.40697e-06
-1.39996e-07
1.30799e-06
-6.1812e-08
1.19221e-06
3.24496e-08
1.09417e-06
1.40846e-07
1.01258e-06
2.59805e-07
9.41439e-07
3.79349e-07
8.82021e-07
4.96838e-07
8.22193e-07
6.02366e-07
7.65532e-07
6.91564e-07
6.98741e-07
7.5511e-07
6.43444e-07
7.84794e-07
5.6523e-07
7.72396e-07
4.73058e-07
7.3677e-07
4.3225e-07
6.16688e-07
3.86794e-07
4.42207e-07
2.12115e-07
2.96098e-07
-1.15411e-07
4.00368e-07
-4.06014e-06
-9.81896e-06
-4.25356e-07
1.58315e-06
-4.35455e-07
1.41707e-06
-3.24952e-07
1.19748e-06
-1.98865e-07
1.06612e-06
-6.46412e-08
9.59942e-07
6.76435e-08
8.80292e-07
2.06196e-07
8.02886e-07
3.37903e-07
7.50315e-07
4.6738e-07
6.92715e-07
5.79841e-07
6.53071e-07
6.79191e-07
5.99392e-07
7.55478e-07
5.67157e-07
7.95538e-07
5.2517e-07
7.90756e-07
4.7784e-07
7.37181e-07
4.85825e-07
6.16644e-07
5.07331e-07
5.14187e-07
3.14572e-07
7.77369e-07
-3.78593e-07
9.29973e-07
-4.21275e-06
-8.88899e-06
-6.41576e-07
2.22473e-06
-4.77311e-07
1.25281e-06
-2.26269e-07
9.4644e-07
-1.1448e-08
8.51297e-07
2.00636e-07
7.47859e-07
3.89526e-07
6.91402e-07
5.92562e-07
5.99851e-07
7.66447e-07
5.76429e-07
9.55475e-07
5.03688e-07
1.10384e-06
5.0471e-07
1.26603e-06
4.37198e-07
1.37862e-06
4.54561e-07
1.50406e-06
3.99733e-07
1.55475e-06
4.27152e-07
1.66774e-06
3.72835e-07
1.82269e-06
3.52383e-07
2.07491e-06
6.23452e-08
2.54853e-06
-8.52214e-07
2.08671e-06
-3.75092e-06
-6.80229e-06
2.22473e-06
3.47753e-06
4.42398e-06
5.27527e-06
6.02313e-06
6.71453e-06
7.31438e-06
7.89081e-06
8.3945e-06
8.89921e-06
9.33641e-06
9.79097e-06
1.01907e-05
1.06179e-05
1.09907e-05
1.13431e-05
1.14054e-05
1.05532e-05
6.80229e-06
)
;

boundaryField
{
    movingWall
    {
        type            calculated;
        value           uniform 0;
    }
    fixedWalls
    {
        type            calculated;
        value           uniform 0;
    }
    frontAndBack
    {
        type            empty;
        value           nonuniform 0();
    }
}


// ************************************************************************* //
