/*--------------------------------*- C++ -*----------------------------------*\
| =========                 |                                                 |
| \\      /  F ield         | OpenFOAM: The Open Source CFD Toolbox           |
|  \\    /   O peration     | Version:  5.0                                   |
|   \\  /    A nd           | Web:      www.OpenFOAM.org                      |
|    \\/     M anipulation  |                                                 |
\*---------------------------------------------------------------------------*/
FoamFile
{
    version     2.0;
    format      ascii;
    class       volVectorField;
    location    "2";
    object      U;
}
// * * * * * * * * * * * * * * * * * * * * * * * * * * * * * * * * * * * * * //

dimensions      [0 1 -1 0 0 0 0];

internalField   nonuniform List<vector> 
400
(
(-0.000426878 0.000269541 0)
(-0.00194825 0.000269944 0)
(-0.0035656 0.000214887 0)
(-0.00517892 0.00012923 0)
(-0.00681748 1.73572e-05 0)
(-0.00862164 -8.25905e-05 0)
(-0.0109955 -3.70674e-05 0)
(-0.0148592 0.000468376 0)
(-0.0217289 0.0020962 0)
(-0.0338758 0.00603411 0)
(-0.0554434 0.0123929 0)
(-0.0896709 0.0162191 0)
(-0.118847 0.0135643 0)
(-0.130763 0.00868339 0)
(-0.134364 0.00380231 0)
(-0.126949 -0.00439133 0)
(-0.1072 -0.00819576 0)
(-0.0835919 -0.0130923 0)
(-0.0519818 -0.0168289 0)
(-0.0148123 -0.00806793 0)
(-0.000940853 0.00229614 0)
(-0.00443055 0.00317546 0)
(-0.00820274 0.00329582 0)
(-0.0122605 0.00343194 0)
(-0.0167977 0.00375436 0)
(-0.0221809 0.00456832 0)
(-0.0291116 0.00659133 0)
(-0.0387794 0.0110176 0)
(-0.0525607 0.0189715 0)
(-0.0718144 0.0298217 0)
(-0.0971237 0.0388435 0)
(-0.122695 0.038469 0)
(-0.13623 0.0272229 0)
(-0.140987 0.00918032 0)
(-0.138651 -0.00487303 0)
(-0.128098 -0.0201888 0)
(-0.11083 -0.0351171 0)
(-0.0874995 -0.0475612 0)
(-0.059729 -0.0594155 0)
(-0.020959 -0.0543226 0)
(-0.00115784 0.00547362 0)
(-0.0054218 0.00744513 0)
(-0.0100433 0.00793517 0)
(-0.0151522 0.00864288 0)
(-0.0210167 0.00989268 0)
(-0.0280582 0.0121738 0)
(-0.0369018 0.0164757 0)
(-0.048326 0.0242474 0)
(-0.0628246 0.0363355 0)
(-0.0807744 0.0501761 0)
(-0.101524 0.0577216 0)
(-0.118134 0.0511261 0)
(-0.125096 0.0320424 0)
(-0.121519 0.0112588 0)
(-0.11335 -0.00965694 0)
(-0.104405 -0.0303556 0)
(-0.0876378 -0.0500834 0)
(-0.0704814 -0.0695725 0)
(-0.0483499 -0.0935031 0)
(-0.0246191 -0.102679 0)
(-0.00115623 0.00881883 0)
(-0.00550124 0.0119745 0)
(-0.0102129 0.0129185 0)
(-0.0154506 0.014293 0)
(-0.0214557 0.016569 0)
(-0.0285704 0.0203543 0)
(-0.0371792 0.0267424 0)
(-0.0476003 0.0370556 0)
(-0.0597163 0.051193 0)
(-0.0735845 0.0646278 0)
(-0.0884479 0.0693955 0)
(-0.0993444 0.0584928 0)
(-0.10097 0.0345273 0)
(-0.0950239 0.00711682 0)
(-0.0889018 -0.0179466 0)
(-0.0789899 -0.0427305 0)
(-0.0641735 -0.0629099 0)
(-0.0486305 -0.0802908 0)
(-0.0415693 -0.110321 0)
(-0.0102295 -0.132269 0)
(-0.000994916 0.0120153 0)
(-0.00498578 0.0163514 0)
(-0.00929774 0.0177442 0)
(-0.0140323 0.019715 0)
(-0.0193213 0.0228528 0)
(-0.0253392 0.0277751 0)
(-0.032139 0.0354687 0)
(-0.0396042 0.0469336 0)
(-0.0481155 0.0619824 0)
(-0.0569507 0.0750845 0)
(-0.0651546 0.0765151 0)
(-0.0726868 0.0619491 0)
(-0.0731707 0.0346457 0)
(-0.0709229 0.00410761 0)
(-0.0655614 -0.0272466 0)
(-0.0560169 -0.0594957 0)
(-0.0484397 -0.0814862 0)
(-0.0317269 -0.0957045 0)
(-0.0337324 -0.123787 0)
(-0.00696149 -0.160559 0)
(-0.000744257 0.0147568 0)
(-0.00410262 0.0202174 0)
(-0.0077068 0.0219607 0)
(-0.011562 0.024314 0)
(-0.0156425 0.0279498 0)
(-0.0199415 0.0334247 0)
(-0.0242492 0.0415967 0)
(-0.0280046 0.053382 0)
(-0.0318623 0.0690298 0)
(-0.03488 0.0792699 0)
(-0.0359477 0.079644 0)
(-0.0401502 0.065043 0)
(-0.0405045 0.037093 0)
(-0.03862 0.0043148 0)
(-0.0363809 -0.0309874 0)
(-0.0275883 -0.0652452 0)
(-0.0283782 -0.0886198 0)
(-0.0144405 -0.101616 0)
(-0.0232568 -0.125315 0)
(-0.00124952 -0.174029 0)
(-0.000469063 0.0168976 0)
(-0.00301735 0.0233048 0)
(-0.00579298 0.0253136 0)
(-0.00861473 0.0277748 0)
(-0.01133 0.0314712 0)
(-0.0137728 0.0368326 0)
(-0.0155691 0.0444871 0)
(-0.0159738 0.0551173 0)
(-0.0139792 0.0689336 0)
(-0.0117379 0.079501 0)
(-0.00802373 0.0796445 0)
(-0.00523921 0.0674626 0)
(-0.00375409 0.0389626 0)
(-0.00250725 0.00354499 0)
(-0.00458631 -0.0311347 0)
(0.00247292 -0.0629225 0)
(-0.00546456 -0.0865347 0)
(0.000559893 -0.0994996 0)
(-0.0161786 -0.123992 0)
(0.0019936 -0.184983 0)
(-0.000179847 0.0183302 0)
(-0.00191562 0.0255809 0)
(-0.00385369 0.0277282 0)
(-0.00566289 0.0300459 0)
(-0.00710864 0.03342 0)
(-0.00793247 0.0381458 0)
(-0.00768473 0.0445929 0)
(-0.00563202 0.05302 0)
(-0.000397308 0.0636285 0)
(0.00741705 0.0733192 0)
(0.0158781 0.074465 0)
(0.0236526 0.0644063 0)
(0.0283164 0.0411197 0)
(0.0306945 0.00810866 0)
(0.0260337 -0.0291735 0)
(0.0277262 -0.0593645 0)
(0.0120724 -0.0804747 0)
(0.0117123 -0.0925927 0)
(-0.0106773 -0.118602 0)
(0.00422399 -0.189983 0)
(7.8871e-05 0.019089 0)
(-0.000927063 0.0270706 0)
(-0.00211262 0.0292484 0)
(-0.00304748 0.0312416 0)
(-0.00346289 0.0340467 0)
(-0.00306176 0.0378192 0)
(-0.00150762 0.0427067 0)
(0.00202178 0.0487612 0)
(0.00841314 0.0558293 0)
(0.0184842 0.0624826 0)
(0.0290988 0.0640333 0)
(0.0401126 0.0555453 0)
(0.0455287 0.036135 0)
(0.0509496 0.00857606 0)
(0.0436699 -0.0225436 0)
(0.0421421 -0.0507932 0)
(0.0208127 -0.0701175 0)
(0.0169828 -0.0827558 0)
(-0.00989201 -0.112743 0)
(0.00692781 -0.192613 0)
(0.000275965 0.0192527 0)
(-0.000153526 0.027897 0)
(-0.000710985 0.0300109 0)
(-0.000958469 0.0315886 0)
(-0.000638338 0.0336783 0)
(0.000526831 0.0364259 0)
(0.00288301 0.0397832 0)
(0.00693378 0.0437227 0)
(0.0132095 0.0476215 0)
(0.0223131 0.0508785 0)
(0.0330325 0.0508265 0)
(0.0445202 0.0443712 0)
(0.0497524 0.0296422 0)
(0.0566486 0.00852857 0)
(0.0487798 -0.0162688 0)
(0.047151 -0.0397918 0)
(0.0249391 -0.054991 0)
(0.0201243 -0.069439 0)
(-0.00915115 -0.103678 0)
(0.00847065 -0.19384 0)
(0.000343949 0.0190494 0)
(0.000375011 0.0281685 0)
(0.000263117 0.0301986 0)
(0.000508067 0.0312877 0)
(0.00132916 0.0326949 0)
(0.00293668 0.0344734 0)
(0.00558762 0.0365319 0)
(0.00955226 0.0386633 0)
(0.0151245 0.0403892 0)
(0.0224906 0.0410316 0)
(0.0309023 0.0393021 0)
(0.0418704 0.034157 0)
(0.0449944 0.023181 0)
(0.0531446 0.00785833 0)
(0.0458307 -0.00988899 0)
(0.043479 -0.0300118 0)
(0.0220808 -0.0421396 0)
(0.0189268 -0.0573529 0)
(-0.0110101 -0.0972538 0)
(0.0102937 -0.196282 0)
(0.000359316 0.0186214 0)
(0.000606399 0.028024 0)
(0.000843937 0.0299322 0)
(0.00138731 0.0306271 0)
(0.00249327 0.0313344 0)
(0.00431626 0.0322633 0)
(0.00697185 0.0332725 0)
(0.0106017 0.0341138 0)
(0.0152393 0.0344562 0)
(0.0212278 0.0336253 0)
(0.0267743 0.0311277 0)
(0.0357926 0.0264177 0)
(0.0372575 0.018407 0)
(0.0442997 0.00630311 0)
(0.0384577 -0.00436639 0)
(0.0361059 -0.0212534 0)
(0.0170694 -0.0289858 0)
(0.0179815 -0.0458352 0)
(-0.0136304 -0.0944679 0)
(0.0107106 -0.199643 0)
(0.000258685 0.0181454 0)
(0.00053649 0.027757 0)
(0.000869211 0.0294427 0)
(0.00166869 0.0296666 0)
(0.00294421 0.0298261 0)
(0.00481514 0.0300295 0)
(0.0073462 0.0302172 0)
(0.0105815 0.030173 0)
(0.0143709 0.0296656 0)
(0.0192067 0.0281939 0)
(0.0228912 0.0256143 0)
(0.0294493 0.0213011 0)
(0.0303124 0.0153817 0)
(0.0350893 0.00655222 0)
(0.0307298 0.000159257 0)
(0.0291706 -0.0127023 0)
(0.0116173 -0.0192813 0)
(0.01857 -0.0339323 0)
(-0.0159467 -0.0888986 0)
(0.0133226 -0.201557 0)
(-4.26716e-05 0.0178946 0)
(0.000181812 0.0274905 0)
(0.000525937 0.0288798 0)
(0.00139879 0.0285567 0)
(0.0028083 0.0281595 0)
(0.00470143 0.0278124 0)
(0.0070988 0.0274207 0)
(0.00998573 0.0268335 0)
(0.0131513 0.0258447 0)
(0.0170005 0.0241895 0)
(0.0197095 0.0217689 0)
(0.0243268 0.0180779 0)
(0.0246108 0.0135216 0)
(0.0276642 0.00732874 0)
(0.0241875 0.00298232 0)
(0.024215 -0.00632806 0)
(0.00731302 -0.0104367 0)
(0.0192304 -0.0246131 0)
(-0.0192395 -0.0838707 0)
(0.0165334 -0.204803 0)
(-0.000325312 0.018103 0)
(-0.000563214 0.027175 0)
(-0.000189034 0.0281253 0)
(0.000713784 0.0274363 0)
(0.00212723 0.0265796 0)
(0.00400996 0.0257289 0)
(0.00627758 0.02488 0)
(0.0088905 0.0239104 0)
(0.0116292 0.022696 0)
(0.0147504 0.0210571 0)
(0.0169195 0.0188848 0)
(0.0203206 0.0160314 0)
(0.0201672 0.0124692 0)
(0.0221962 0.00809171 0)
(0.0194074 0.00521914 0)
(0.0207258 -0.00144798 0)
(0.00368535 -0.00457373 0)
(0.0203176 -0.0150865 0)
(-0.0205665 -0.0804434 0)
(0.0209944 -0.207006 0)
(-0.00111569 0.0190194 0)
(-0.00187196 0.0274441 0)
(-0.00168794 0.0276746 0)
(-0.000701505 0.0261266 0)
(0.000977455 0.0246905 0)
(0.00302263 0.023539 0)
(0.00531826 0.0224292 0)
(0.00781023 0.0213066 0)
(0.0103108 0.0200092 0)
(0.0129796 0.0185174 0)
(0.0148426 0.016604 0)
(0.0174642 0.0145823 0)
(0.0173798 0.0119575 0)
(0.0184336 0.00860012 0)
(0.0158918 0.00697996 0)
(0.0178327 0.00385865 0)
(0.00140267 0.000231032 0)
(0.020482 -0.00713393 0)
(-0.0197823 -0.079109 0)
(0.0275999 -0.209692 0)
(-0.00175078 0.0216572 0)
(-0.00404911 0.0274362 0)
(-0.0034835 0.0268571 0)
(-0.00213076 0.0250014 0)
(-0.000393369 0.0232213 0)
(0.00166367 0.0216263 0)
(0.00394225 0.0202654 0)
(0.00635411 0.018995 0)
(0.00868633 0.0177628 0)
(0.0110789 0.0164363 0)
(0.0127368 0.0149102 0)
(0.0148786 0.0135263 0)
(0.0151521 0.0114792 0)
(0.0160165 0.00936151 0)
(0.0143196 0.00825155 0)
(0.017162 0.00597367 0)
(0.00396333 0.000856215 0)
(0.0184145 -0.00468718 0)
(-0.0124965 -0.0826429 0)
(0.036193 -0.212884 0)
(-0.00561922 0.0262036 0)
(-0.0100689 0.0300103 0)
(-0.00778506 0.0264632 0)
(-0.00537277 0.0232876 0)
(-0.00266672 0.0209653 0)
(-7.74991e-06 0.0193362 0)
(0.00271314 0.0178088 0)
(0.0054255 0.0166978 0)
(0.00801833 0.0154508 0)
(0.0105533 0.0144858 0)
(0.012449 0.0132246 0)
(0.0146506 0.0124007 0)
(0.0153827 0.0111832 0)
(0.0162367 0.00987837 0)
(0.0148505 0.00964871 0)
(0.0161877 0.0107221 0)
(0.00567941 0.00915469 0)
(0.018861 0.00107211 0)
(0.00233363 -0.0912492 0)
(0.0486034 -0.211349 0)
(-0.00953323 0.0400671 0)
(-0.0136842 0.0229191 0)
(-0.00645071 0.0180969 0)
(-0.00255665 0.0170015 0)
(0.00202023 0.0155741 0)
(0.00576883 0.0141443 0)
(0.00997552 0.0127565 0)
(0.0134271 0.0118351 0)
(0.0174115 0.0109654 0)
(0.0204732 0.0104004 0)
(0.0238174 0.00969907 0)
(0.0264771 0.00927729 0)
(0.0289235 0.0090672 0)
(0.0309172 0.00849796 0)
(0.0320869 0.00886538 0)
(0.0357848 0.00732468 0)
(0.0328013 9.21666e-05 0)
(0.0441332 -0.02191 0)
(0.0402741 -0.10018 0)
(0.0717578 -0.173757 0)
(0.046557 0.042004 0)
(0.0532132 0.0315538 0)
(0.0779341 0.0237345 0)
(0.095769 0.0200009 0)
(0.115808 0.0166818 0)
(0.126106 0.0156716 0)
(0.142261 0.0131277 0)
(0.150541 0.0130146 0)
(0.164447 0.0107074 0)
(0.171774 0.0112519 0)
(0.1835 0.00899166 0)
(0.190575 0.0100534 0)
(0.20004 0.00774142 0)
(0.20704 0.00934511 0)
(0.214006 0.00688168 0)
(0.220319 0.00883738 0)
(0.224242 0.00418436 0)
(0.218189 -0.00171616 0)
(0.190525 -0.0124613 0)
(0.142833 -0.0311398 0)
)
;

boundaryField
{
    movingWall
    {
        type            fixedValue;
        value           uniform (1 0 0);
    }
    fixedWalls
    {
        type            noSlip;
    }
    frontAndBack
    {
        type            empty;
    }
}


// ************************************************************************* //
