/*--------------------------------*- C++ -*----------------------------------*\
| =========                 |                                                 |
| \\      /  F ield         | OpenFOAM: The Open Source CFD Toolbox           |
|  \\    /   O peration     | Version:  5.0                                   |
|   \\  /    A nd           | Web:      www.OpenFOAM.org                      |
|    \\/     M anipulation  |                                                 |
\*---------------------------------------------------------------------------*/
FoamFile
{
    version     2.0;
    format      ascii;
    class       volScalarField;
    location    "2";
    object      yPlus;
}
// * * * * * * * * * * * * * * * * * * * * * * * * * * * * * * * * * * * * * //

dimensions      [0 0 0 0 0 0 0];

internalField   uniform 0;

boundaryField
{
    movingWall
    {
        type            calculated;
        value           nonuniform List<scalar> 
20
(
15.4464
15.3892
15.1853
15.0371
14.869
14.782
14.6444
14.5736
14.4536
14.3901
14.2877
14.2257
14.1421
14.0803
14.0181
13.9618
13.9263
13.9805
14.2265
14.6435
)
;
    }
    fixedWalls
    {
        type            calculated;
        value           nonuniform List<scalar> 
60
(
0.355265
0.787627
1.18266
1.49117
1.73612
1.92195
2.05573
2.14074
2.18456
2.19401
2.18246
2.15783
2.12998
2.1151
2.12755
2.18244
2.33066
2.5884
3.2088
3.95932
2.05347
3.81529
5.13783
5.75899
6.33857
6.59609
6.80062
6.89257
6.9415
6.96464
7.00985
7.06983
7.10628
7.1671
7.21228
7.27153
7.34743
7.36318
6.85549
6.04541
0.355265
0.701224
0.944996
1.13804
1.30552
1.46817
1.65798
1.92786
2.33612
2.93296
3.76867
4.77299
5.46851
5.72388
5.79693
5.63527
5.18442
4.59921
3.69588
2.05347
)
;
    }
    frontAndBack
    {
        type            empty;
    }
}


// ************************************************************************* //
