/*--------------------------------*- C++ -*----------------------------------*\
| =========                 |                                                 |
| \\      /  F ield         | OpenFOAM: The Open Source CFD Toolbox           |
|  \\    /   O peration     | Version:  5.0                                   |
|   \\  /    A nd           | Web:      www.OpenFOAM.org                      |
|    \\/     M anipulation  |                                                 |
\*---------------------------------------------------------------------------*/
FoamFile
{
    version     2.0;
    format      ascii;
    class       volScalarField;
    location    "3";
    object      epsilon;
}
// * * * * * * * * * * * * * * * * * * * * * * * * * * * * * * * * * * * * * //

dimensions      [0 2 -3 0 0 0 0];

internalField   nonuniform List<scalar> 
400
(
1.22342e-05
3.25252e-05
4.24455e-05
4.96329e-05
0.000101012
0.000310682
0.000662902
0.000923663
0.00108097
0.00123414
0.00136578
0.00148369
0.00160243
0.00169179
0.00173052
0.00173763
0.00161619
0.00126587
0.00077323
0.000531226
5.09363e-05
5.70744e-05
8.35469e-05
0.000137044
0.000311472
0.000654352
0.000880669
0.00097029
0.00102346
0.00108682
0.00116792
0.00128033
0.00142628
0.00159815
0.00179217
0.00198735
0.00208469
0.00209361
0.00177797
0.00130567
0.000142368
0.000137049
0.00021735
0.000353401
0.000578719
0.000787405
0.00088321
0.000932881
0.000969588
0.00104054
0.00113387
0.00125055
0.00139114
0.00155284
0.00174042
0.00194899
0.00214388
0.00223058
0.00216101
0.00185863
0.000247606
0.000236977
0.0003564
0.000511681
0.000681142
0.000791532
0.000851256
0.00087864
0.000921969
0.000984565
0.00106289
0.00115911
0.00127662
0.00142554
0.00161556
0.00185416
0.00212992
0.00229248
0.00232763
0.00222626
0.000341006
0.000318859
0.000450409
0.000594462
0.00070337
0.00076745
0.000794093
0.000816581
0.000848887
0.000891976
0.000946902
0.00101964
0.00112079
0.00126685
0.0014783
0.00177292
0.00213997
0.00242329
0.00251062
0.00252447
0.000402221
0.000365105
0.00048469
0.000606968
0.000687464
0.000719465
0.000732972
0.000746984
0.000764046
0.000785251
0.000815065
0.000863629
0.000947635
0.00109145
0.00132801
0.00169119
0.00218448
0.00261182
0.00275416
0.00276928
0.000432564
0.000371969
0.000477
0.000590582
0.00064936
0.000666581
0.000672321
0.000677012
0.000680124
0.000682489
0.000690725
0.000717226
0.000782545
0.000918148
0.0011701
0.00159381
0.0022176
0.00285176
0.00307667
0.00297843
0.000426512
0.000362352
0.000450252
0.00054912
0.000598053
0.000612837
0.000613857
0.000611342
0.000604787
0.000594294
0.000588065
0.000596749
0.000644298
0.000766707
0.00102159
0.00148856
0.00222966
0.00310226
0.0034579
0.00315013
0.000408098
0.000339026
0.000402762
0.000488927
0.000540521
0.000557884
0.000558177
0.000551855
0.000540207
0.000523487
0.00050866
0.000506527
0.000540008
0.000647831
0.000896257
0.00138887
0.00223133
0.00334915
0.003905
0.00329105
0.000369725
0.000308988
0.00035435
0.000427147
0.000479665
0.000501815
0.000503927
0.000496967
0.000483901
0.000465958
0.00044846
0.000443145
0.000467525
0.000561558
0.000796664
0.00129736
0.00222321
0.00355429
0.00437944
0.00339457
0.000339247
0.000282996
0.000311498
0.000371083
0.000421976
0.000448176
0.000453282
0.000446995
0.000434187
0.000417338
0.000401585
0.000398653
0.000419691
0.000502949
0.000720318
0.00120967
0.0021851
0.00372029
0.00488191
0.00346533
0.000311061
0.000261219
0.000277579
0.000323616
0.000371462
0.00040146
0.000410935
0.000406153
0.000394755
0.000379047
0.000366059
0.000366416
0.000386807
0.000461772
0.000659285
0.00112269
0.00210901
0.00380822
0.0053646
0.00349899
0.00028286
0.000242058
0.000251562
0.000286109
0.000329574
0.00036232
0.000377913
0.00037632
0.00036839
0.00035376
0.000342242
0.000343677
0.000362801
0.000428953
0.000604337
0.00103057
0.00199434
0.0038388
0.00579383
0.00351077
0.000258789
0.00022507
0.000231994
0.000258732
0.000297047
0.000330073
0.000350142
0.000354025
0.000348925
0.000337417
0.00032681
0.000328102
0.000344784
0.000401988
0.000553951
0.000934511
0.00184742
0.00379526
0.00602348
0.00350691
0.000234271
0.000208008
0.000216072
0.000239565
0.000273641
0.000305452
0.000328323
0.000338586
0.000337164
0.000331197
0.000323224
0.000324641
0.000339737
0.000390742
0.000528261
0.000878022
0.00172641
0.00368382
0.00609979
0.00348257
0.000219006
0.000190524
0.000206146
0.000236451
0.000271797
0.000304982
0.000330142
0.000344374
0.000347868
0.000346376
0.000345007
0.000350812
0.000372784
0.00043024
0.000565277
0.00089279
0.00168648
0.00362845
0.00585355
0.00346665
0.000220738
0.000182512
0.00021376
0.000255505
0.000300528
0.00034378
0.000381223
0.00041096
0.000433077
0.00045199
0.00047386
0.000507517
0.000563915
0.00066482
0.000840431
0.0012062
0.0019553
0.00377173
0.00529588
0.00340906
0.000253932
0.00020689
0.000295112
0.00039251
0.000494318
0.000596753
0.000696684
0.000796334
0.000893178
0.000997638
0.00111258
0.00125731
0.00144012
0.00169448
0.00202316
0.00258229
0.00328985
0.00471856
0.00500096
0.00334283
0.000354053
0.000342812
0.000701331
0.00110786
0.00148936
0.00186588
0.00223456
0.00262335
0.00300142
0.00341869
0.00384203
0.00433068
0.00486444
0.00548683
0.00614202
0.0069881
0.00692148
0.00638836
0.00515984
0.0031871
0.000281677
0.00043679
0.000754617
0.00106563
0.0013555
0.00160676
0.00184676
0.002044
0.0022571
0.00241195
0.00261392
0.00273521
0.00293832
0.00303986
0.00324073
0.0033231
0.00343625
0.00343734
0.00335983
0.00297833
)
;

boundaryField
{
    movingWall
    {
        Cmu             0.09;
        kappa           0.41;
        E               9.8;
        type            epsilonWallFunction;
        value           nonuniform List<scalar> 
20
(
0.000281677
0.00043679
0.000754617
0.00106563
0.0013555
0.00160676
0.00184676
0.002044
0.0022571
0.00241195
0.00261392
0.00273521
0.00293832
0.00303986
0.00324073
0.0033231
0.00343625
0.00343734
0.00335983
0.00297833
)
;
    }
    fixedWalls
    {
        Cmu             0.09;
        kappa           0.41;
        E               9.8;
        type            epsilonWallFunction;
        value           nonuniform List<scalar> 
60
(
1.22342e-05
5.09363e-05
0.000142368
0.000247606
0.000341006
0.000402221
0.000432564
0.000426512
0.000408098
0.000369725
0.000339247
0.000311061
0.00028286
0.000258789
0.000234271
0.000219006
0.000220738
0.000253932
0.000354053
0.000281677
0.000531226
0.00130567
0.00185863
0.00222626
0.00252447
0.00276928
0.00297843
0.00315013
0.00329105
0.00339457
0.00346533
0.00349899
0.00351077
0.00350691
0.00348257
0.00346665
0.00340906
0.00334283
0.0031871
0.00297833
1.22342e-05
3.25252e-05
4.24455e-05
4.96329e-05
0.000101012
0.000310682
0.000662902
0.000923663
0.00108097
0.00123414
0.00136578
0.00148369
0.00160243
0.00169179
0.00173052
0.00173763
0.00161619
0.00126587
0.00077323
0.000531226
)
;
    }
    frontAndBack
    {
        type            empty;
    }
}


// ************************************************************************* //
