/*--------------------------------*- C++ -*----------------------------------*\
| =========                 |                                                 |
| \\      /  F ield         | OpenFOAM: The Open Source CFD Toolbox           |
|  \\    /   O peration     | Version:  5.0                                   |
|   \\  /    A nd           | Web:      www.OpenFOAM.org                      |
|    \\/     M anipulation  |                                                 |
\*---------------------------------------------------------------------------*/
FoamFile
{
    version     2.0;
    format      ascii;
    class       volScalarField;
    location    "3";
    object      k;
}
// * * * * * * * * * * * * * * * * * * * * * * * * * * * * * * * * * * * * * //

dimensions      [0 2 -2 0 0 0 0];

internalField   nonuniform List<scalar> 
400
(
3.80744e-06
1.01017e-05
1.31745e-05
1.54769e-05
3.20134e-05
9.86968e-05
0.000208982
0.00028943
0.000338294
0.000386097
0.000426973
0.000463768
0.000500792
0.000528571
0.00054062
0.000542814
0.000504841
0.000395459
0.000241653
0.00016611
1.5869e-05
5.56932e-05
6.30308e-05
7.41055e-05
0.000136145
0.000282636
0.000438181
0.000536759
0.000625078
0.000706903
0.000786596
0.000862042
0.000934622
0.000995535
0.00104372
0.0010653
0.00106776
0.000943789
0.000659211
0.000407727
4.4454e-05
0.000145759
0.000179473
0.000224027
0.000347251
0.000502567
0.00063112
0.000721697
0.00080014
0.000872439
0.000944471
0.0010133
0.00107914
0.0011388
0.00118592
0.00120696
0.00121028
0.00112633
0.000853161
0.000580229
7.74362e-05
0.00023912
0.00029788
0.000367458
0.000490911
0.000621326
0.000726178
0.000807365
0.000873983
0.000937326
0.000999559
0.00106073
0.00112041
0.00118064
0.00124249
0.00128292
0.00129466
0.0012523
0.00100311
0.000694972
0.00010675
0.000316405
0.000391302
0.000468264
0.000577992
0.000681696
0.000764614
0.000830133
0.000885438
0.000938793
0.000993053
0.00104761
0.00110597
0.00117417
0.00125456
0.00134067
0.00138035
0.0013752
0.00114582
0.000788031
0.000125969
0.000366726
0.000453354
0.000528779
0.000618153
0.000695907
0.000763422
0.000823676
0.000871983
0.000914045
0.000951791
0.000992689
0.00104755
0.00112451
0.00123032
0.00136243
0.0014714
0.0014978
0.0012942
0.000864448
0.000135479
0.00038985
0.000481787
0.000546754
0.000617247
0.000689662
0.000750717
0.000801047
0.000836097
0.000861536
0.000884929
0.000916105
0.000967157
0.00105152
0.00118207
0.00136268
0.00155091
0.00162565
0.00145162
0.00092971
0.000133571
0.000386504
0.000479036
0.00054215
0.000606901
0.000670948
0.000721169
0.000759039
0.000784644
0.000799898
0.000812715
0.000834951
0.000881948
0.000971689
0.00112163
0.00134081
0.0016059
0.00174996
0.00161064
0.000983303
0.000127771
0.000374972
0.000468017
0.000528219
0.000582767
0.000634882
0.000677871
0.000708886
0.000727859
0.000736518
0.000742384
0.000758573
0.000803188
0.000897863
0.00106316
0.0013133
0.00163264
0.00186491
0.00177534
0.00102727
0.00011567
0.000354332
0.000446423
0.000504861
0.000550834
0.000592815
0.00062827
0.000653612
0.000668275
0.000673749
0.000677089
0.000691412
0.000736208
0.000836168
0.00101248
0.00128335
0.00164225
0.0019629
0.0019304
0.00105957
0.000106052
0.000329547
0.000423314
0.000482102
0.000523346
0.000555746
0.000581924
0.000600282
0.000610853
0.000615156
0.000619669
0.000635983
0.000683377
0.000787997
0.000970394
0.00125255
0.00163959
0.00203369
0.00207899
0.00108163
9.71873e-05
0.00030407
0.000400835
0.000462349
0.000504348
0.000532576
0.000551412
0.000562657
0.000568211
0.000570996
0.000577359
0.000596315
0.00064573
0.000751205
0.000931833
0.0012137
0.00161425
0.00206581
0.00220973
0.00109212
8.83167e-05
0.000279214
0.000379903
0.000445929
0.000492558
0.000524051
0.000543445
0.000552325
0.000553948
0.000554339
0.00055892
0.000576461
0.000622767
0.000721247
0.000890881
0.00116094
0.0015632
0.00207357
0.00231498
0.00109579
8.07428e-05
0.000258269
0.000362027
0.000432996
0.000486448
0.000524683
0.000546788
0.000556637
0.000557752
0.00055698
0.000559807
0.00057335
0.000611414
0.000694732
0.000844773
0.00109226
0.00148063
0.00203947
0.0023645
0.00109456
7.30463e-05
0.000239057
0.000347301
0.000426918
0.000487645
0.000530694
0.00055806
0.000571298
0.000573025
0.000570999
0.000571714
0.000580759
0.000609796
0.000675951
0.000802583
0.00101939
0.00137853
0.00197285
0.00237526
0.00108696
6.82056e-05
0.000230453
0.000345712
0.000430571
0.000496507
0.000546278
0.00058
0.000598156
0.000603703
0.000602647
0.000602579
0.000608627
0.000630662
0.00068329
0.000789044
0.000986773
0.00132193
0.00190257
0.00225885
0.00108198
6.87043e-05
0.000235815
0.000358354
0.000453042
0.000528467
0.000587506
0.000630305
0.00065767
0.000672449
0.000679574
0.000685981
0.000699026
0.000726425
0.000781677
0.000880705
0.00106062
0.00133396
0.00187576
0.00207113
0.00106397
7.90399e-05
0.000271849
0.000427028
0.00054493
0.000643006
0.000724559
0.000791041
0.000844969
0.000888254
0.000927033
0.000966143
0.00101488
0.00107931
0.00116978
0.00129709
0.00148856
0.00169484
0.00200281
0.0018893
0.00104324
0.00011033
0.000368013
0.000634295
0.000852719
0.00103298
0.00119049
0.00133001
0.00146196
0.0015807
0.00170091
0.00181689
0.00194329
0.0020803
0.00222751
0.00239579
0.002569
0.0025286
0.00231709
0.00182235
0.000994537
8.77719e-05
0.000136188
0.000235429
0.000332536
0.00042302
0.000501398
0.000576253
0.000637703
0.000704127
0.000752319
0.000815286
0.000853035
0.000916419
0.000948066
0.00101083
0.00103657
0.001072
0.00107243
0.00104826
0.000929259
)
;

boundaryField
{
    movingWall
    {
        type            kqRWallFunction;
        value           nonuniform List<scalar> 
20
(
8.77719e-05
0.000136188
0.000235429
0.000332536
0.00042302
0.000501398
0.000576253
0.000637703
0.000704127
0.000752319
0.000815286
0.000853035
0.000916419
0.000948066
0.00101083
0.00103657
0.001072
0.00107243
0.00104826
0.000929259
)
;
    }
    fixedWalls
    {
        type            kqRWallFunction;
        value           nonuniform List<scalar> 
60
(
3.80744e-06
1.5869e-05
4.4454e-05
7.74362e-05
0.00010675
0.000125969
0.000135479
0.000133571
0.000127771
0.00011567
0.000106052
9.71873e-05
8.83167e-05
8.07428e-05
7.30463e-05
6.82056e-05
6.87043e-05
7.90399e-05
0.00011033
8.77719e-05
0.00016611
0.000407727
0.000580229
0.000694972
0.000788031
0.000864448
0.00092971
0.000983303
0.00102727
0.00105957
0.00108163
0.00109212
0.00109579
0.00109456
0.00108696
0.00108198
0.00106397
0.00104324
0.000994537
0.000929259
3.80744e-06
1.01017e-05
1.31745e-05
1.54769e-05
3.20134e-05
9.86968e-05
0.000208982
0.00028943
0.000338294
0.000386097
0.000426973
0.000463768
0.000500792
0.000528571
0.00054062
0.000542814
0.000504841
0.000395459
0.000241653
0.00016611
)
;
    }
    frontAndBack
    {
        type            empty;
    }
}


// ************************************************************************* //
