/*--------------------------------*- C++ -*----------------------------------*\
| =========                 |                                                 |
| \\      /  F ield         | OpenFOAM: The Open Source CFD Toolbox           |
|  \\    /   O peration     | Version:  5.0                                   |
|   \\  /    A nd           | Web:      www.OpenFOAM.org                      |
|    \\/     M anipulation  |                                                 |
\*---------------------------------------------------------------------------*/
FoamFile
{
    version     2.0;
    format      ascii;
    class       volScalarField;
    location    "3";
    object      nut;
}
// * * * * * * * * * * * * * * * * * * * * * * * * * * * * * * * * * * * * * //

dimensions      [0 2 -1 0 0 0 0];

internalField   nonuniform List<scalar> 
400
(
1.06644e-07
2.82367e-07
3.68026e-07
4.34353e-07
9.13133e-07
2.82184e-06
5.92938e-06
8.16235e-06
9.52832e-06
1.0871e-05
1.20133e-05
1.30467e-05
1.40857e-05
1.48628e-05
1.52002e-05
1.52612e-05
1.41926e-05
1.11188e-05
6.797e-06
4.67469e-06
4.44953e-07
4.89108e-06
4.27975e-06
3.60647e-06
5.35585e-06
1.09872e-05
1.96217e-05
2.67239e-05
3.43591e-05
4.13813e-05
4.76795e-05
5.2237e-05
5.51202e-05
5.58132e-05
5.4705e-05
5.1394e-05
4.92205e-05
3.82909e-05
2.19972e-05
1.1459e-05
1.24925e-06
1.3952e-05
1.33377e-05
1.27813e-05
1.87527e-05
2.8869e-05
4.05885e-05
5.02488e-05
5.94275e-05
6.58343e-05
7.08037e-05
7.38962e-05
7.53401e-05
7.51644e-05
7.27271e-05
6.72692e-05
6.14912e-05
5.11868e-05
3.03142e-05
1.63023e-05
2.17957e-06
2.17155e-05
2.24071e-05
2.37498e-05
3.18427e-05
4.38948e-05
5.5753e-05
6.67684e-05
7.45646e-05
8.03118e-05
8.45997e-05
8.73631e-05
8.84989e-05
8.80038e-05
8.60007e-05
7.98901e-05
7.08254e-05
6.15678e-05
3.89071e-05
1.95255e-05
3.00757e-06
2.82573e-05
3.05957e-05
3.31971e-05
4.27467e-05
5.44972e-05
6.62607e-05
7.5952e-05
8.31207e-05
8.89262e-05
9.37308e-05
9.6871e-05
9.82208e-05
9.79439e-05
9.58213e-05
9.12426e-05
8.01334e-05
7.02378e-05
4.70649e-05
2.2139e-05
3.55062e-06
3.31518e-05
3.8164e-05
4.14596e-05
5.00246e-05
6.05809e-05
7.15623e-05
8.17417e-05
8.95652e-05
9.57567e-05
0.000100031
0.000102693
0.000104221
0.000104271
0.000102582
9.8783e-05
8.91982e-05
7.73046e-05
5.47341e-05
2.42859e-05
3.81888e-06
3.67731e-05
4.37959e-05
4.5556e-05
5.2805e-05
6.42187e-05
7.54428e-05
8.53026e-05
9.25055e-05
9.78799e-05
0.000102036
0.000105312
0.000107579
0.000108385
0.000107475
0.000104856
9.76189e-05
8.34037e-05
6.16404e-05
2.61186e-05
3.76475e-06
3.7104e-05
4.58695e-05
4.81742e-05
5.54292e-05
6.61113e-05
7.62516e-05
8.48177e-05
9.16189e-05
9.6897e-05
0.000101087
0.000105141
0.000108653
0.000110833
0.000110833
0.000108696
0.000104097
8.88419e-05
6.75189e-05
2.76241e-05
3.60034e-06
3.73257e-05
4.89461e-05
5.13601e-05
5.65484e-05
6.50256e-05
7.40909e-05
8.1954e-05
8.82626e-05
9.32619e-05
9.75152e-05
0.000102243
0.000107517
0.000111996
0.000113502
0.000111765
0.000107513
9.34592e-05
7.26415e-05
2.88586e-05
3.2569e-06
3.65697e-05
5.06178e-05
5.37042e-05
5.69306e-05
6.30286e-05
7.04965e-05
7.73669e-05
8.30608e-05
8.76781e-05
9.20048e-05
9.70891e-05
0.000104337
0.000112056
0.000115809
0.000114254
0.00010918
9.75629e-05
7.6581e-05
2.97657e-05
2.98374e-06
3.45379e-05
5.17741e-05
5.63701e-05
5.8416e-05
6.20221e-05
6.72368e-05
7.25522e-05
7.73462e-05
8.16064e-05
8.60566e-05
9.13141e-05
0.000100146
0.000111114
0.000117656
0.000116726
0.000110723
0.000100054
7.96816e-05
3.03848e-05
2.73285e-06
3.18556e-05
5.2094e-05
5.94502e-05
6.16295e-05
6.35863e-05
6.65919e-05
7.0152e-05
7.36095e-05
7.74134e-05
8.19564e-05
8.73413e-05
9.70173e-05
0.000109985
0.000118535
0.000118088
0.0001112
0.000100856
8.19187e-05
3.06792e-05
2.48174e-06
2.89866e-05
5.16351e-05
6.25522e-05
6.62529e-05
6.82176e-05
7.03333e-05
7.29583e-05
7.49674e-05
7.8178e-05
8.21502e-05
8.70225e-05
9.62113e-05
0.000109144
0.000118196
0.000117703
0.000110274
0.000100805
8.32475e-05
3.07818e-05
2.26728e-06
2.66729e-05
5.08449e-05
6.5217e-05
7.16953e-05
7.5063e-05
7.68487e-05
7.87686e-05
8.02404e-05
8.27474e-05
8.63026e-05
9.01722e-05
9.75809e-05
0.00010806
0.000115945
0.000114898
0.0001068
9.86355e-05
8.35362e-05
3.07465e-05
2.04984e-06
2.47266e-05
5.02409e-05
6.84713e-05
7.82112e-05
8.29827e-05
8.53696e-05
8.67558e-05
8.76491e-05
8.85988e-05
9.10114e-05
9.35039e-05
9.85071e-05
0.000105241
0.000109742
0.000106518
9.90671e-05
9.50894e-05
8.32436e-05
3.05328e-05
1.91173e-06
2.50876e-05
5.21792e-05
7.05653e-05
8.16297e-05
8.80634e-05
9.17061e-05
9.35064e-05
9.42919e-05
9.43672e-05
9.47202e-05
9.50321e-05
9.60235e-05
9.76657e-05
9.91253e-05
9.81585e-05
9.32566e-05
8.97849e-05
7.84507e-05
3.03925e-05
1.92457e-06
2.74217e-05
5.4068e-05
7.2297e-05
8.3636e-05
9.03623e-05
9.37919e-05
9.47238e-05
9.39715e-05
9.19575e-05
8.93751e-05
8.66521e-05
8.42189e-05
8.27167e-05
8.30618e-05
8.39356e-05
8.19063e-05
8.39572e-05
7.28987e-05
2.98859e-05
2.2142e-06
3.21484e-05
5.5612e-05
6.80885e-05
7.52777e-05
7.91764e-05
8.0836e-05
8.06918e-05
7.95022e-05
7.75282e-05
7.55084e-05
7.37279e-05
7.28015e-05
7.26801e-05
7.48429e-05
7.72268e-05
7.85822e-05
7.65087e-05
6.42376e-05
2.93018e-05
3.09431e-06
3.55561e-05
5.163e-05
5.90703e-05
6.4481e-05
6.83619e-05
7.1246e-05
7.3326e-05
7.49232e-05
7.61636e-05
7.73286e-05
7.84809e-05
8.00682e-05
8.13882e-05
8.41066e-05
8.49987e-05
8.31386e-05
7.56377e-05
5.79255e-05
2.79311e-05
2.46151e-06
3.82164e-06
6.61053e-06
9.33932e-06
1.18813e-05
1.40818e-05
1.6183e-05
1.7906e-05
1.97694e-05
2.11193e-05
2.2886e-05
2.39433e-05
2.57236e-05
2.66113e-05
2.83765e-05
2.91005e-05
3.0099e-05
3.01135e-05
2.94352e-05
2.60941e-05
)
;

boundaryField
{
    movingWall
    {
        type            nutkWallFunction;
        Cmu             0.09;
        kappa           0.41;
        E               9.8;
        value           uniform 0;
    }
    fixedWalls
    {
        type            nutkWallFunction;
        Cmu             0.09;
        kappa           0.41;
        E               9.8;
        value           uniform 0;
    }
    frontAndBack
    {
        type            empty;
    }
}


// ************************************************************************* //
