/*--------------------------------*- C++ -*----------------------------------*\
| =========                 |                                                 |
| \\      /  F ield         | OpenFOAM: The Open Source CFD Toolbox           |
|  \\    /   O peration     | Version:  5.0                                   |
|   \\  /    A nd           | Web:      www.OpenFOAM.org                      |
|    \\/     M anipulation  |                                                 |
\*---------------------------------------------------------------------------*/
FoamFile
{
    version     2.0;
    format      ascii;
    class       volScalarField;
    location    "3";
    object      p;
}
// * * * * * * * * * * * * * * * * * * * * * * * * * * * * * * * * * * * * * //

dimensions      [0 2 -2 0 0 0 0];

internalField   nonuniform List<scalar> 
400
(
6.18543e-08
-3.45236e-05
-8.1301e-05
-0.000154862
-0.000176747
-0.000131939
-0.000339516
-0.000938692
-0.00170006
-0.0023501
-0.00272893
-0.0027228
-0.0022871
-0.00142842
-0.000170451
0.00138913
0.00302638
0.00439494
0.0051786
0.00530196
3.39151e-05
-3.06523e-06
-5.06598e-05
-0.000128335
-0.000248213
-0.000434331
-0.000817113
-0.00146794
-0.00220229
-0.00281196
-0.00319581
-0.00324026
-0.00290234
-0.00214422
-0.000976015
0.000516878
0.00215919
0.00363759
0.00462366
0.00498991
0.000107916
5.30016e-05
-2.45972e-05
-0.000178098
-0.000446978
-0.000881161
-0.00150253
-0.00225339
-0.00299294
-0.0036088
-0.00400432
-0.00406649
-0.00377245
-0.00311019
-0.00209289
-0.000766944
0.000764564
0.00228508
0.00348796
0.00407004
0.000103524
1.98301e-05
-0.000104231
-0.000354712
-0.000806722
-0.00147689
-0.00230135
-0.00315861
-0.0039394
-0.00455789
-0.00492759
-0.00499921
-0.00475506
-0.00419002
-0.00332032
-0.00217531
-0.000814965
0.000622151
0.00188923
0.00255116
-3.72418e-05
-0.00016009
-0.000347873
-0.000703881
-0.00130895
-0.00214813
-0.00309692
-0.00401751
-0.00481721
-0.00542468
-0.00578219
-0.00586392
-0.00566438
-0.00519207
-0.00446513
-0.00350497
-0.00234492
-0.00106453
0.000149397
0.000776658
-0.000327663
-0.000484952
-0.000732108
-0.00117562
-0.00187479
-0.00279465
-0.00379777
-0.00474053
-0.0055383
-0.00613084
-0.00647779
-0.00656645
-0.00640334
-0.00600906
-0.00540696
-0.00461681
-0.00365892
-0.00257606
-0.00151009
-0.00092925
-0.000724976
-0.000901345
-0.00118557
-0.00167258
-0.00240873
-0.0033385
-0.00434382
-0.00527844
-0.00605962
-0.00663305
-0.0069677
-0.00705944
-0.00692421
-0.00659211
-0.00609268
-0.00544644
-0.00466716
-0.00378028
-0.00291906
-0.00238311
-0.00115837
-0.00133403
-0.00162934
-0.002113
-0.00283501
-0.00373008
-0.00470054
-0.00560497
-0.00635842
-0.00690888
-0.0072299
-0.00732259
-0.00720876
-0.00692596
-0.00650923
-0.0059808
-0.00535033
-0.00463466
-0.00396595
-0.0034919
-0.00155679
-0.00171946
-0.002001
-0.00244864
-0.0031182
-0.0039482
-0.00485694
-0.00571178
-0.00642807
-0.00695293
-0.00726064
-0.00735412
-0.0072581
-0.0070157
-0.00666544
-0.00623089
-0.00572084
-0.00514467
-0.00463864
-0.0042177
-0.0018858
-0.00201685
-0.00227077
-0.0026683
-0.00325882
-0.00399742
-0.00481851
-0.00560762
-0.00627899
-0.00677676
-0.00707292
-0.00716911
-0.00709207
-0.00688587
-0.00659037
-0.00622946
-0.00581605
-0.00533682
-0.00495716
-0.00457561
-0.00212268
-0.00222253
-0.00243577
-0.00277648
-0.00327349
-0.00390491
-0.00461916
-0.0053281
-0.00594635
-0.00641469
-0.00670149
-0.00680466
-0.00675035
-0.00657939
-0.00632979
-0.00602625
-0.00568733
-0.00525245
-0.00498568
-0.00458857
-0.00226868
-0.00234166
-0.00250824
-0.00278545
-0.00319025
-0.00371343
-0.00431784
-0.00493641
-0.00549326
-0.00592865
-0.00620725
-0.00632166
-0.00629312
-0.00615608
-0.00594382
-0.00567919
-0.00538223
-0.00494796
-0.00480658
-0.00429366
-0.00235187
-0.00239434
-0.00251058
-0.00272361
-0.00304567
-0.0034715
-0.00397453
-0.00450454
-0.00499811
-0.00539886
-0.00566911
-0.00579588
-0.00579229
-0.00568373
-0.00549696
-0.00525129
-0.00496595
-0.00448927
-0.00450093
-0.00371991
-0.00239774
-0.00240398
-0.0024666
-0.00261835
-0.00287021
-0.00321681
-0.00363677
-0.0040912
-0.00452814
-0.00489669
-0.00515845
-0.00529523
-0.00531068
-0.0052226
-0.00504783
-0.00480128
-0.00450342
-0.00395991
-0.00409345
-0.00291172
-0.00242306
-0.00238543
-0.00239245
-0.00248717
-0.0026812
-0.00296786
-0.0033269
-0.00372528
-0.00411926
-0.00446296
-0.00471858
-0.00486387
-0.00489408
-0.00481534
-0.00463849
-0.004371
-0.00403861
-0.00340184
-0.00357411
-0.00189235
-0.00244816
-0.00234632
-0.00229742
-0.00233943
-0.00248611
-0.00272924
-0.0030476
-0.0034101
-0.00377717
-0.00410623
-0.0043608
-0.00451514
-0.00455733
-0.00448286
-0.00429455
-0.00398454
-0.00357598
-0.00277116
-0.00283817
-0.000522374
-0.00249644
-0.00229854
-0.00218914
-0.00217728
-0.0022819
-0.00249284
-0.00278586
-0.00312985
-0.00348777
-0.00381638
-0.00407724
-0.00424252
-0.00429566
-0.00422123
-0.00401112
-0.00361455
-0.00304705
-0.00194398
-0.0016019
0.00208808
-0.00259373
-0.0022575
-0.00208713
-0.00201252
-0.00208149
-0.00227183
-0.00255348
-0.00289222
-0.00325053
-0.00358728
-0.00386528
-0.00404746
-0.00410754
-0.00400944
-0.0037257
-0.00318414
-0.00235429
-0.000698731
0.000846504
0.00792046
-0.00290537
-0.00231692
-0.00203523
-0.0019048
-0.00194862
-0.00213106
-0.00241569
-0.00276459
-0.00313864
-0.0034922
-0.00379402
-0.00399358
-0.00407207
-0.00396552
-0.00364835
-0.00294091
-0.00163312
0.00110094
0.00536517
0.017878
-0.00324763
-0.00083474
-0.000559493
-0.000638914
-0.00079373
-0.00104575
-0.00140519
-0.00183645
-0.00228824
-0.00271261
-0.00306344
-0.00330794
-0.00339105
-0.00327254
-0.00283911
-0.001986
-0.000157139
0.00418948
0.0126598
0.0283769
)
;

boundaryField
{
    movingWall
    {
        type            zeroGradient;
    }
    fixedWalls
    {
        type            zeroGradient;
    }
    frontAndBack
    {
        type            empty;
    }
}


// ************************************************************************* //
