/*--------------------------------*- C++ -*----------------------------------*\
| =========                 |                                                 |
| \\      /  F ield         | OpenFOAM: The Open Source CFD Toolbox           |
|  \\    /   O peration     | Version:  5.0                                   |
|   \\  /    A nd           | Web:      www.OpenFOAM.org                      |
|    \\/     M anipulation  |                                                 |
\*---------------------------------------------------------------------------*/
FoamFile
{
    version     2.0;
    format      ascii;
    class       surfaceScalarField;
    location    "3";
    object      phi;
}
// * * * * * * * * * * * * * * * * * * * * * * * * * * * * * * * * * * * * * //

dimensions      [0 3 -1 0 0 0 0];

internalField   nonuniform List<scalar> 
760
(
6.26481e-08
-6.26542e-08
4.26981e-08
1.99498e-08
-3.80459e-08
8.07437e-08
-2.54192e-07
2.16145e-07
-7.83148e-07
5.28956e-07
-1.71292e-06
9.2977e-07
-2.83691e-06
1.12399e-06
-3.82554e-06
9.8863e-07
-4.59315e-06
7.67608e-07
-5.16736e-06
5.74209e-07
-5.51545e-06
3.48095e-07
-5.66838e-06
1.5292e-07
-5.60817e-06
-6.02009e-08
-5.33312e-06
-2.75053e-07
-4.84054e-06
-4.92579e-07
-4.09046e-06
-7.50081e-07
-3.09063e-06
-9.99828e-07
-1.88556e-06
-1.20507e-06
-6.82162e-07
-1.2034e-06
-6.82162e-07
-1.08683e-07
4.60283e-08
-3.68944e-07
2.80211e-07
-7.85084e-07
4.96884e-07
-1.45951e-06
8.90567e-07
-2.39975e-06
1.4692e-06
-3.34383e-06
1.87385e-06
-4.09608e-06
1.87625e-06
-4.72573e-06
1.61828e-06
-5.25111e-06
1.29299e-06
-5.62912e-06
9.52211e-07
-5.86995e-06
5.8893e-07
-5.94376e-06
2.26735e-07
-5.85456e-06
-1.49408e-07
-5.60125e-06
-5.28359e-07
-5.16119e-06
-9.32641e-07
-4.5251e-06
-1.38618e-06
-3.65799e-06
-1.86693e-06
-2.54042e-06
-2.32264e-06
-1.22054e-06
-2.52328e-06
-1.9027e-06
-3.25509e-07
3.71537e-07
-8.13447e-07
7.68149e-07
-1.45106e-06
1.13449e-06
-2.23966e-06
1.67917e-06
-3.04078e-06
2.27032e-06
-3.70816e-06
2.54122e-06
-4.23261e-06
2.40069e-06
-4.66963e-06
2.0553e-06
-5.02016e-06
1.64352e-06
-5.24986e-06
1.18191e-06
-5.36928e-06
7.08348e-07
-5.36849e-06
2.25949e-07
-5.25872e-06
-2.59185e-07
-5.03101e-06
-7.5607e-07
-4.66863e-06
-1.29502e-06
-4.16006e-06
-1.89474e-06
-3.47302e-06
-2.55397e-06
-2.56412e-06
-3.23154e-06
-1.38366e-06
-3.70375e-06
-3.28636e-06
-4.65444e-07
8.36981e-07
-1.04085e-06
1.34356e-06
-1.69867e-06
1.79231e-06
-2.39338e-06
2.37388e-06
-3.00221e-06
2.87915e-06
-3.46984e-06
3.00885e-06
-3.84038e-06
2.77124e-06
-4.13931e-06
2.35423e-06
-4.35674e-06
1.86096e-06
-4.4923e-06
1.31747e-06
-4.54239e-06
7.58436e-07
-4.51031e-06
1.93866e-07
-4.39772e-06
-3.7177e-07
-4.19987e-06
-9.53926e-07
-3.9134e-06
-1.58148e-06
-3.52398e-06
-2.28417e-06
-2.99767e-06
-3.08027e-06
-2.28341e-06
-3.94581e-06
-1.29323e-06
-4.69392e-06
-4.57959e-06
-4.97915e-07
1.3349e-06
-1.05582e-06
1.90146e-06
-1.6325e-06
2.36899e-06
-2.18048e-06
2.92187e-06
-2.61461e-06
3.31328e-06
-2.94429e-06
3.33852e-06
-3.20753e-06
3.03448e-06
-3.41207e-06
2.55877e-06
-3.5514e-06
2.00028e-06
-3.62652e-06
1.39259e-06
-3.63624e-06
7.68157e-07
-3.5848e-06
1.42427e-07
-3.47585e-06
-4.80725e-07
-3.31278e-06
-1.11699e-06
-3.09707e-06
-1.7972e-06
-2.81743e-06
-2.56381e-06
-2.44041e-06
-3.45729e-06
-1.90657e-06
-4.47965e-06
-1.11233e-06
-5.48816e-06
-5.69192e-06
-4.45995e-07
1.78089e-06
-9.22756e-07
2.37822e-06
-1.37756e-06
2.82379e-06
-1.77319e-06
3.3175e-06
-2.0625e-06
3.60259e-06
-2.28974e-06
3.56577e-06
-2.47267e-06
3.2174e-06
-2.61163e-06
2.69773e-06
-2.70133e-06
2.08998e-06
-2.74208e-06
1.43334e-06
-2.73412e-06
7.60195e-07
-2.68121e-06
8.95243e-08
-2.58906e-06
-5.72878e-07
-2.46586e-06
-1.24019e-06
-2.31653e-06
-1.94652e-06
-2.13367e-06
-2.74667e-06
-1.88751e-06
-3.70346e-06
-1.51574e-06
-4.85141e-06
-9.17497e-07
-6.0864e-06
-6.60942e-06
-3.47666e-07
2.12856e-06
-7.09542e-07
2.7401e-06
-1.03051e-06
3.14476e-06
-1.28126e-06
3.56825e-06
-1.45139e-06
3.77272e-06
-1.5881e-06
3.70248e-06
-1.70423e-06
3.33354e-06
-1.79493e-06
2.78843e-06
-1.85373e-06
2.14879e-06
-1.87917e-06
1.45878e-06
-1.87092e-06
7.51944e-07
-1.83229e-06
5.08859e-08
-1.77005e-06
-6.35112e-07
-1.69471e-06
-1.31554e-06
-1.61367e-06
-2.02756e-06
-1.52273e-06
-2.83761e-06
-1.39732e-06
-3.82887e-06
-1.17612e-06
-5.07261e-06
-7.45345e-07
-6.51718e-06
-7.35476e-06
-2.25282e-07
2.35384e-06
-4.64569e-07
2.97938e-06
-6.55436e-07
3.33563e-06
-7.72634e-07
3.68544e-06
-8.39641e-07
3.83972e-06
-8.90353e-07
3.75319e-06
-9.44288e-07
3.38747e-06
-9.94049e-07
2.83819e-06
-1.03144e-06
2.18619e-06
-1.05273e-06
1.48007e-06
-1.05622e-06
7.55429e-07
-1.04431e-06
3.89738e-08
-1.02301e-06
-6.5641e-07
-1.00318e-06
-1.33536e-06
-9.92787e-07
-2.03795e-06
-9.88654e-07
-2.84175e-06
-9.67107e-07
-3.85042e-06
-8.69832e-07
-5.16989e-06
-6.06766e-07
-6.78024e-06
-7.96153e-06
-1.05595e-07
2.45943e-06
-2.22093e-07
3.09588e-06
-2.93697e-07
3.40724e-06
-2.95132e-07
3.68688e-06
-2.68569e-07
3.81316e-06
-2.35811e-07
3.72044e-06
-2.25833e-07
3.37749e-06
-2.33021e-07
2.84538e-06
-2.50034e-07
2.2032e-06
-2.71215e-07
1.50125e-06
-2.93282e-07
7.77496e-07
-3.16856e-07
6.25477e-08
-3.45593e-07
-6.27673e-07
-3.88475e-07
-1.29248e-06
-4.52146e-07
-1.97428e-06
-5.33596e-07
-2.7603e-06
-6.09232e-07
-3.77478e-06
-6.19741e-07
-5.15938e-06
-4.81924e-07
-6.91806e-06
-8.44345e-06
1.21161e-08
2.44732e-06
-5.55981e-09
3.11356e-06
2.25488e-08
3.37913e-06
1.14229e-07
3.5952e-06
2.34646e-07
3.69274e-06
3.51123e-07
3.60396e-06
4.29912e-07
3.2987e-06
4.68768e-07
2.80653e-06
4.74172e-07
2.19779e-06
4.52893e-07
1.52253e-06
4.09376e-07
8.21013e-07
3.45528e-07
1.26396e-07
2.60929e-07
-5.43074e-07
1.51724e-07
-1.18328e-06
1.43489e-08
-1.83691e-06
-1.48471e-07
-2.59748e-06
-3.14343e-07
-3.60891e-06
-4.20728e-07
-5.05299e-06
-3.95403e-07
-6.94339e-06
-8.83886e-06
9.0998e-08
2.35632e-06
1.61602e-07
3.04295e-06
2.64916e-07
3.27581e-06
4.31133e-07
3.42898e-06
6.3128e-07
3.4926e-06
8.25798e-07
3.40944e-06
9.7786e-07
3.14664e-06
1.07077e-06
2.71361e-06
1.10708e-06
2.16149e-06
1.09222e-06
1.53739e-06
1.03109e-06
8.82145e-07
9.28564e-07
2.28924e-07
7.88283e-07
-4.02792e-07
6.14718e-07
-1.00971e-06
4.08571e-07
-1.63076e-06
1.74147e-07
-2.36305e-06
-6.63552e-08
-3.3684e-06
-2.58289e-07
-4.86106e-06
-3.22501e-07
-6.87917e-06
-9.16136e-06
1.5168e-07
2.20464e-06
2.84191e-07
2.91044e-06
4.43355e-07
3.11665e-06
6.55224e-07
3.21711e-06
9.0605e-07
3.24177e-06
1.15928e-06
3.15621e-06
1.37499e-06
2.93093e-06
1.52506e-06
2.56354e-06
1.60128e-06
2.08527e-06
1.60418e-06
1.53449e-06
1.53767e-06
9.4865e-07
1.40869e-06
3.57906e-07
1.22458e-06
-2.18686e-07
9.98573e-07
-7.83703e-07
7.35932e-07
-1.36812e-06
4.41091e-07
-2.06821e-06
1.31309e-07
-3.05862e-06
-1.34397e-07
-4.59535e-06
-2.78319e-07
-6.73525e-06
-9.43968e-06
1.89249e-07
2.01539e-06
3.62929e-07
2.73677e-06
5.5854e-07
2.92104e-06
7.9751e-07
2.97814e-06
1.07368e-06
2.9656e-06
1.35886e-06
2.87104e-06
1.6156e-06
2.67419e-06
1.81093e-06
2.36821e-06
1.92701e-06
1.96919e-06
1.95699e-06
1.5045e-06
1.90154e-06
1.0041e-06
1.7671e-06
4.92348e-07
1.56213e-06
-1.37141e-08
1.30544e-06
-5.27021e-07
1.0051e-06
-1.06778e-06
6.65899e-07
-1.72901e-06
2.99882e-07
-2.69261e-06
-3.626e-08
-4.25921e-06
-2.29619e-07
-6.54189e-06
-9.66929e-06
1.94391e-07
1.821e-06
3.9412e-07
2.53704e-06
6.16354e-07
2.6988e-06
8.72945e-07
2.72155e-06
1.15972e-06
2.67882e-06
1.45603e-06
2.57473e-06
1.73154e-06
2.39868e-06
1.95465e-06
2.1451e-06
2.10243e-06
1.82141e-06
2.16221e-06
1.44473e-06
2.13035e-06
1.03596e-06
2.00994e-06
6.12755e-07
1.81354e-06
1.82684e-07
1.55009e-06
-2.63572e-07
1.23389e-06
-7.51574e-07
8.69255e-07
-1.36438e-06
4.65088e-07
-2.28844e-06
8.23682e-08
-3.87649e-06
-1.56634e-07
-6.30289e-06
-9.82593e-06
1.68134e-07
1.65287e-06
3.81048e-07
2.32412e-06
6.24288e-07
2.45557e-06
8.95387e-07
2.45045e-06
1.18836e-06
2.38585e-06
1.48758e-06
2.27551e-06
1.76923e-06
2.11703e-06
2.00659e-06
1.90774e-06
2.17709e-06
1.65091e-06
2.26586e-06
1.35595e-06
2.26584e-06
1.03599e-06
2.17722e-06
7.01374e-07
2.00562e-06
3.54283e-07
1.75981e-06
-1.77618e-08
1.44758e-06
-4.39351e-07
1.07511e-06
-9.91896e-07
6.51116e-07
-1.86445e-06
2.44511e-07
-3.46988e-06
-9.24101e-09
-6.04914e-06
-9.83517e-06
1.10256e-07
1.54261e-06
3.21776e-07
2.1126e-06
5.81738e-07
2.1956e-06
8.69714e-07
2.16248e-06
1.17433e-06
2.08123e-06
1.4805e-06
1.96935e-06
1.76893e-06
1.8286e-06
2.01824e-06
1.65843e-06
2.20923e-06
1.45992e-06
2.32841e-06
1.23678e-06
2.36693e-06
9.97468e-07
2.3219e-06
7.46407e-07
2.19298e-06
4.83204e-07
1.98225e-06
1.92962e-07
1.69374e-06
-1.50841e-07
1.33643e-06
-6.34581e-07
9.10409e-07
-1.43843e-06
4.68602e-07
-3.02808e-06
1.32151e-07
-5.71269e-06
-9.70302e-06
-2.8661e-09
1.54548e-06
2.00229e-07
1.90951e-06
4.76895e-07
1.91894e-06
7.94921e-07
1.84445e-06
1.12728e-06
1.74887e-06
1.45708e-06
1.63954e-06
1.76822e-06
1.51745e-06
2.04515e-06
1.38151e-06
2.27286e-06
1.23221e-06
2.43787e-06
1.07176e-06
2.52885e-06
9.06493e-07
2.5414e-06
7.33857e-07
2.47279e-06
5.51812e-07
2.3244e-06
3.41355e-07
2.08611e-06
8.74508e-08
1.77104e-06
-3.1951e-07
1.35106e-06
-1.01845e-06
8.46331e-07
-2.52335e-06
3.46519e-07
-5.21288e-06
-9.3565e-06
-2.72945e-07
1.81842e-06
-3.19501e-08
1.66851e-06
3.47713e-07
1.53927e-06
7.54202e-07
1.43796e-06
1.16255e-06
1.34052e-06
1.56041e-06
1.24168e-06
1.93513e-06
1.14274e-06
2.27414e-06
1.0425e-06
2.56359e-06
9.42757e-07
2.79611e-06
8.39246e-07
2.96568e-06
7.36923e-07
3.07179e-06
6.27741e-07
3.10538e-06
5.18231e-07
3.06176e-06
3.84968e-07
2.93226e-06
2.16957e-07
2.70795e-06
-9.51994e-08
2.29286e-06
-6.03366e-07
1.68126e-06
-1.91175e-06
8.17236e-07
-4.34885e-06
-8.53926e-06
-3.25423e-07
2.14385e-06
1.24457e-07
1.21863e-06
6.80495e-07
9.83237e-07
1.23701e-06
8.81443e-07
1.77605e-06
8.01486e-07
2.29172e-06
7.26006e-07
2.77749e-06
6.56971e-07
3.22599e-06
5.93994e-07
3.6269e-06
5.41849e-07
3.98295e-06
4.83196e-07
4.27944e-06
4.40435e-07
4.53232e-06
3.74858e-07
4.71303e-06
3.37524e-07
4.84813e-06
2.49867e-07
4.86835e-06
1.9674e-07
4.75575e-06
1.74015e-08
4.45055e-06
-2.98167e-07
3.75567e-06
-1.21688e-06
2.2041e-06
-2.79727e-06
-6.33517e-06
2.14385e-06
3.36248e-06
4.34571e-06
5.22716e-06
6.02864e-06
6.75465e-06
7.41162e-06
8.00561e-06
8.54746e-06
9.03066e-06
9.47109e-06
9.84595e-06
1.01835e-05
1.04333e-05
1.06301e-05
1.06475e-05
1.03493e-05
9.13244e-06
6.33517e-06
)
;

boundaryField
{
    movingWall
    {
        type            calculated;
        value           uniform 0;
    }
    fixedWalls
    {
        type            calculated;
        value           uniform 0;
    }
    frontAndBack
    {
        type            empty;
        value           nonuniform 0();
    }
}


// ************************************************************************* //
