/*--------------------------------*- C++ -*----------------------------------*\
| =========                 |                                                 |
| \\      /  F ield         | OpenFOAM: The Open Source CFD Toolbox           |
|  \\    /   O peration     | Version:  5.0                                   |
|   \\  /    A nd           | Web:      www.OpenFOAM.org                      |
|    \\/     M anipulation  |                                                 |
\*---------------------------------------------------------------------------*/
FoamFile
{
    version     2.0;
    format      ascii;
    class       volVectorField;
    location    "3";
    object      U;
}
// * * * * * * * * * * * * * * * * * * * * * * * * * * * * * * * * * * * * * //

dimensions      [0 1 -1 0 0 0 0];

internalField   nonuniform List<vector> 
400
(
(0.00096923 -0.00119654 0)
(0.0013946 -0.000841495 0)
(0.000397586 -0.000760086 0)
(-0.0021578 -0.000556322 0)
(-0.0083657 0.000946375 0)
(-0.0211442 0.00562912 0)
(-0.0451946 0.0116326 0)
(-0.0698393 0.0108206 0)
(-0.0865318 0.00772146 0)
(-0.0999363 0.0059432 0)
(-0.108705 0.0035338 0)
(-0.112819 0.00140747 0)
(-0.113911 -0.00100786 0)
(-0.109974 -0.00410186 0)
(-0.101975 -0.00642353 0)
(-0.0888544 -0.00915239 0)
(-0.0710612 -0.0111501 0)
(-0.0492732 -0.0124373 0)
(-0.0250399 -0.0103014 0)
(-0.00474137 -0.00292693 0)
(-0.000540839 -0.00126091 0)
(-0.0040133 0.00170939 0)
(-0.0104189 0.00422462 0)
(-0.0207558 0.00978522 0)
(-0.037604 0.0208534 0)
(-0.0571811 0.0303465 0)
(-0.0749185 0.0312601 0)
(-0.0901325 0.0267618 0)
(-0.101303 0.0214557 0)
(-0.109988 0.0160758 0)
(-0.116249 0.00965341 0)
(-0.119131 0.00401165 0)
(-0.118968 -0.00200922 0)
(-0.115198 -0.00831746 0)
(-0.108057 -0.0151482 0)
(-0.0969018 -0.0230151 0)
(-0.0815565 -0.0309103 0)
(-0.0620159 -0.0372165 0)
(-0.0381983 -0.0373808 0)
(-0.0126061 -0.0225675 0)
(-0.00283228 0.00343209 0)
(-0.0105678 0.0101971 0)
(-0.021333 0.016461 0)
(-0.0360606 0.0265885 0)
(-0.0529008 0.0386804 0)
(-0.068276 0.0451694 0)
(-0.0803748 0.0432051 0)
(-0.0901267 0.0368063 0)
(-0.0977589 0.0292417 0)
(-0.103784 0.0209654 0)
(-0.107034 0.0128038 0)
(-0.107999 0.00430721 0)
(-0.106827 -0.00446616 0)
(-0.103444 -0.0135368 0)
(-0.0974391 -0.0232774 0)
(-0.0885381 -0.0341042 0)
(-0.0762828 -0.0459207 0)
(-0.0603941 -0.0578491 0)
(-0.039789 -0.0648358 0)
(-0.0160395 -0.0534886 0)
(-0.0046382 0.0119713 0)
(-0.0144903 0.0211314 0)
(-0.0263288 0.0295406 0)
(-0.0406693 0.0411234 0)
(-0.0546434 0.0520524 0)
(-0.0658078 0.0558044 0)
(-0.0739894 0.0518937 0)
(-0.0805766 0.0442466 0)
(-0.0856838 0.0351308 0)
(-0.0892076 0.0250668 0)
(-0.090859 0.0146185 0)
(-0.0909833 0.00409488 0)
(-0.0894755 -0.00656644 0)
(-0.086333 -0.0176359 0)
(-0.0814631 -0.0295853 0)
(-0.0746728 -0.0429136 0)
(-0.0653495 -0.0577823 0)
(-0.0528799 -0.0735183 0)
(-0.0356982 -0.0861986 0)
(-0.0152719 -0.0814326 0)
(-0.00523728 0.0216495 0)
(-0.0152833 0.0325053 0)
(-0.0261083 0.0418174 0)
(-0.0382287 0.0532438 0)
(-0.0488674 0.0622662 0)
(-0.0565568 0.0636135 0)
(-0.0622683 0.0581878 0)
(-0.0668106 0.0492808 0)
(-0.0701945 0.0387363 0)
(-0.0722605 0.0271659 0)
(-0.0729924 0.015238 0)
(-0.0725092 0.00327951 0)
(-0.0708435 -0.00873486 0)
(-0.0680848 -0.0210789 0)
(-0.0642932 -0.0343398 0)
(-0.0593831 -0.0492717 0)
(-0.0528049 -0.0664904 0)
(-0.043601 -0.0857311 0)
(-0.0298931 -0.103665 0)
(-0.0139721 -0.105344 0)
(-0.00477319 0.0310666 0)
(-0.0136848 0.0429337 0)
(-0.0224523 0.052212 0)
(-0.0319124 0.0627173 0)
(-0.0390756 0.0694013 0)
(-0.0443315 0.0692236 0)
(-0.0482529 0.0626879 0)
(-0.05133 0.0527123 0)
(-0.0535557 0.0409953 0)
(-0.0547726 0.0282817 0)
(-0.0550133 0.0152336 0)
(-0.0543298 0.00221343 0)
(-0.052813 -0.0107305 0)
(-0.05062 -0.0238624 0)
(-0.0478974 -0.0378426 0)
(-0.0446392 -0.0536561 0)
(-0.0404454 -0.0723796 0)
(-0.0342196 -0.0944074 0)
(-0.0241367 -0.117164 0)
(-0.0118238 -0.124564 0)
(-0.00374176 0.0391651 0)
(-0.0107189 0.0514314 0)
(-0.017026 0.0600148 0)
(-0.0236544 0.0692505 0)
(-0.0278018 0.0740755 0)
(-0.0310031 0.0729842 0)
(-0.0334282 0.0657445 0)
(-0.0353628 0.0550169 0)
(-0.0368012 0.0424614 0)
(-0.0375628 0.0289212 0)
(-0.0376551 0.0150537 0)
(-0.0371077 0.00127463 0)
(-0.0360305 -0.0122782 0)
(-0.0346145 -0.0258251 0)
(-0.0330578 -0.0400869 0)
(-0.0314033 -0.0562799 0)
(-0.0293541 -0.0758673 0)
(-0.0258194 -0.0999344 0)
(-0.0197281 -0.127175 0)
(-0.00887942 -0.140921 0)
(-0.00229809 0.0449522 0)
(-0.00712759 0.057523 0)
(-0.0110215 0.0652269 0)
(-0.0147331 0.0730717 0)
(-0.016459 0.0765395 0)
(-0.0176901 0.0749475 0)
(-0.0187082 0.0675235 0)
(-0.0196355 0.056475 0)
(-0.0204642 0.0434564 0)
(-0.0209795 0.0294041 0)
(-0.0211511 0.0150079 0)
(-0.0209912 0.000756588 0)
(-0.0205937 -0.013115 0)
(-0.020147 -0.0267643 0)
(-0.0198602 -0.0409641 0)
(-0.0197902 -0.0571609 0)
(-0.0196578 -0.0772116 0)
(-0.0183744 -0.102927 0)
(-0.0156253 -0.133601 0)
(-0.00730594 -0.153794 0)
(-0.00103014 0.0485873 0)
(-0.00345421 0.0612225 0)
(-0.00518314 0.0679161 0)
(-0.00617135 0.074238 0)
(-0.00591124 0.0770489 0)
(-0.00521545 0.0752413 0)
(-0.00475277 0.06804 0)
(-0.00467384 0.0571305 0)
(-0.00491007 0.0440722 0)
(-0.00524559 0.0298802 0)
(-0.00561179 0.0152938 0)
(-0.00600297 0.000874534 0)
(-0.0064747 -0.0130315 0)
(-0.00716821 -0.0265168 0)
(-0.00825283 -0.0403991 0)
(-0.00978134 -0.0563337 0)
(-0.0115051 -0.076596 0)
(-0.0122582 -0.103693 0)
(-0.0124127 -0.137455 0)
(-0.00549638 -0.164464 0)
(0.000582067 0.0494121 0)
(-0.000131511 0.0625595 0)
(-5.15488e-05 0.0683285 0)
(0.00107825 0.0732652 0)
(0.00330383 0.0755995 0)
(0.00577329 0.0737858 0)
(0.00773464 0.06733 0)
(0.00897228 0.0569626 0)
(0.00943467 0.0443152 0)
(0.00933249 0.0304059 0)
(0.00875947 0.0160212 0)
(0.00774674 0.00178078 0)
(0.0062851 -0.0118684 0)
(0.00433577 -0.0249594 0)
(0.00184169 -0.0383376 0)
(-0.00122556 -0.0538221 0)
(-0.00476605 -0.0741193 0)
(-0.0072081 -0.102428 0)
(-0.0100769 -0.13883 0)
(-0.00437006 -0.172961 0)
(0.00127187 0.0484835 0)
(0.00246605 0.0620034 0)
(0.00407304 0.0669597 0)
(0.00672691 0.0706294 0)
(0.0104532 0.0723184 0)
(0.0145071 0.0706816 0)
(0.0180168 0.0650391 0)
(0.0205371 0.0557543 0)
(0.0218751 0.0440372 0)
(0.0221566 0.0309032 0)
(0.0214776 0.0171834 0)
(0.0198992 0.00353369 0)
(0.0174593 -0.00955752 0)
(0.0142695 -0.0220717 0)
(0.0104435 -0.0348432 0)
(0.00598841 -0.0497881 0)
(0.000751968 -0.0699862 0)
(-0.00292506 -0.0993633 0)
(-0.00829662 -0.138357 0)
(-0.003072 -0.180095 0)
(0.00183916 0.0461131 0)
(0.00438988 0.0599305 0)
(0.0071053 0.0642471 0)
(0.0107551 0.0667459 0)
(0.0154408 0.0676453 0)
(0.0205954 0.0660362 0)
(0.0253775 0.0612365 0)
(0.0291222 0.053272 0)
(0.0314531 0.0429358 0)
(0.0323176 0.0310954 0)
(0.0317583 0.0185584 0)
(0.0298527 0.00596728 0)
(0.0266761 -0.00622843 0)
(0.0224899 -0.0179916 0)
(0.0175695 -0.0300817 0)
(0.0119628 -0.0444299 0)
(0.00526451 -0.0644168 0)
(0.00083623 -0.0947111 0)
(-0.0073479 -0.136264 0)
(-0.00184895 -0.185967 0)
(0.00220142 0.0424793 0)
(0.00561724 0.0567446 0)
(0.00908358 0.0606081 0)
(0.013347 0.0621355 0)
(0.0185399 0.0622312 0)
(0.0242627 0.0604527 0)
(0.0298001 0.0562948 0)
(0.0344265 0.0496271 0)
(0.0376299 0.0408828 0)
(0.0391722 0.0307082 0)
(0.0389872 0.0197901 0)
(0.0371294 0.00868094 0)
(0.0336769 -0.00228913 0)
(0.028963 -0.0130772 0)
(0.0233508 -0.0243726 0)
(0.0169441 -0.0380212 0)
(0.00908053 -0.0576037 0)
(0.00445551 -0.0886455 0)
(-0.00681377 -0.13297 0)
(7.73391e-05 -0.19104 0)
(0.00211947 0.0384871 0)
(0.00600287 0.0529005 0)
(0.0100181 0.056364 0)
(0.0147155 0.0571128 0)
(0.0201751 0.0565068 0)
(0.026096 0.0545005 0)
(0.031927 0.0507968 0)
(0.0370296 0.0452547 0)
(0.0408386 0.0380768 0)
(0.0430028 0.0296934 0)
(0.0433458 0.020608 0)
(0.0418589 0.0112436 0)
(0.0386466 0.00179707 0)
(0.0339645 -0.00780003 0)
(0.0281179 -0.0181431 0)
(0.021335 -0.0309418 0)
(0.0126329 -0.0498782 0)
(0.00818011 -0.0814904 0)
(-0.00657243 -0.128768 0)
(0.00294001 -0.195425 0)
(0.00160284 0.0348032 0)
(0.00556627 0.0487181 0)
(0.00999346 0.051675 0)
(0.0150621 0.051817 0)
(0.0207135 0.050695 0)
(0.0267093 0.0485143 0)
(0.0326159 0.045158 0)
(0.0379124 0.0405515 0)
(0.0420879 0.0347895 0)
(0.0447668 0.0281208 0)
(0.0457187 0.0208723 0)
(0.0448659 0.0133204 0)
(0.0422471 0.00555121 0)
(0.0380282 -0.00265224 0)
(0.0323978 -0.0118027 0)
(0.0256317 -0.0235184 0)
(0.0163396 -0.0416416 0)
(0.0125548 -0.0738266 0)
(-0.0060301 -0.124059 0)
(0.0073401 -0.199383 0)
(0.000752225 0.0317857 0)
(0.00418271 0.0444124 0)
(0.00896982 0.0466082 0)
(0.0143964 0.0462083 0)
(0.0203417 0.0447139 0)
(0.0265145 0.042453 0)
(0.0325414 0.039442 0)
(0.0380062 0.0356594 0)
(0.0424922 0.0311557 0)
(0.0456693 0.0260472 0)
(0.0473085 0.0205116 0)
(0.0472835 0.0146877 0)
(0.0455529 0.00858704 0)
(0.0421661 0.0019299 0)
(0.0370765 -0.00580536 0)
(0.0307897 -0.0163108 0)
(0.0213162 -0.0333228 0)
(0.0186527 -0.0656866 0)
(-0.00479373 -0.119765 0)
(0.0134729 -0.202204 0)
(-0.00150089 0.0306115 0)
(0.00152931 0.0402818 0)
(0.00660319 0.04139 0)
(0.0125968 0.040383 0)
(0.0191354 0.0386258 0)
(0.0258206 0.0364098 0)
(0.0322966 0.0337816 0)
(0.0382339 0.0307334 0)
(0.0433353 0.0272475 0)
(0.0473603 0.0233935 0)
(0.049983 0.0193719 0)
(0.051056 0.0151772 0)
(0.0504869 0.0107374 0)
(0.0483562 0.00568776 0)
(0.0442933 -0.000471976 0)
(0.0392277 -0.00947164 0)
(0.0298184 -0.0247682 0)
(0.0284522 -0.0566943 0)
(-0.00185875 -0.112969 0)
(0.0223804 -0.20016 0)
(-0.00472563 0.0328329 0)
(-0.00471637 0.0370281 0)
(0.0032474 0.035763 0)
(0.0109284 0.0338291 0)
(0.0191043 0.0317568 0)
(0.0272263 0.0295911 0)
(0.0349972 0.0273292 0)
(0.0421932 0.0249448 0)
(0.0485292 0.0224791 0)
(0.0537878 0.0199052 0)
(0.0578178 0.017293 0)
(0.0606253 0.0145525 0)
(0.061986 0.0117692 0)
(0.0620203 0.00850108 0)
(0.0599426 0.00447087 0)
(0.0571513 -0.00244062 0)
(0.0484739 -0.0152403 0)
(0.0471816 -0.0450245 0)
(0.0083938 -0.100421 0)
(0.037909 -0.182254 0)
(-0.00713902 0.0380559 0)
(-0.00374679 0.0237944 0)
(0.00823005 0.0206529 0)
(0.0191415 0.0193666 0)
(0.0301026 0.0180019 0)
(0.0407057 0.0164972 0)
(0.0507234 0.0150459 0)
(0.0601274 0.0136511 0)
(0.0686131 0.0123335 0)
(0.0762524 0.0109758 0)
(0.0827137 0.00964174 0)
(0.0883199 0.00819522 0)
(0.0925084 0.0067077 0)
(0.0958155 0.00485936 0)
(0.0969506 0.00247199 0)
(0.0965723 -0.00252923 0)
(0.089858 -0.0110065 0)
(0.0876069 -0.0344032 0)
(0.0452718 -0.0771923 0)
(0.0708994 -0.139531 0)
(0.0458692 0.0453819 0)
(0.051641 0.0322994 0)
(0.0746156 0.0253579 0)
(0.0963337 0.0216782 0)
(0.113197 0.019262 0)
(0.128245 0.0173215 0)
(0.141501 0.0156101 0)
(0.154294 0.0140965 0)
(0.165278 0.0129917 0)
(0.175971 0.0116688 0)
(0.184753 0.011068 0)
(0.193249 0.009595 0)
(0.19994 0.00947023 0)
(0.205795 0.00748865 0)
(0.210222 0.00765057 0)
(0.212204 0.00397564 0)
(0.209078 0.00202288 0)
(0.199446 -0.00624792 0)
(0.154871 -0.015604 0)
(0.14339 -0.082069 0)
)
;

boundaryField
{
    movingWall
    {
        type            fixedValue;
        value           uniform (1 0 0);
    }
    fixedWalls
    {
        type            noSlip;
    }
    frontAndBack
    {
        type            empty;
    }
}


// ************************************************************************* //
