/*--------------------------------*- C++ -*----------------------------------*\
| =========                 |                                                 |
| \\      /  F ield         | OpenFOAM: The Open Source CFD Toolbox           |
|  \\    /   O peration     | Version:  5.0                                   |
|   \\  /    A nd           | Web:      www.OpenFOAM.org                      |
|    \\/     M anipulation  |                                                 |
\*---------------------------------------------------------------------------*/
FoamFile
{
    version     2.0;
    format      ascii;
    class       volScalarField;
    location    "7.5";
    object      epsilon;
}
// * * * * * * * * * * * * * * * * * * * * * * * * * * * * * * * * * * * * * //

dimensions      [0 2 -3 0 0 0 0];

internalField   nonuniform List<scalar> 
400
(
1.83785e-05
6.13977e-05
0.000261428
0.000560219
0.000769052
0.000927702
0.0010566
0.00117994
0.00128831
0.00139924
0.00150344
0.00161356
0.00172465
0.00180122
0.00183675
0.00184109
0.00171193
0.00135833
0.00083305
0.000598789
8.37751e-05
0.00024003
0.000645771
0.000929335
0.00100066
0.0010305
0.00104142
0.00108548
0.00113362
0.00121921
0.00132419
0.00146126
0.00162359
0.00181647
0.00203032
0.00224637
0.00235024
0.00236174
0.00187589
0.00123173
0.000278668
0.000742106
0.000970148
0.00100536
0.000993529
0.000987508
0.00098257
0.00102151
0.00108104
0.00115821
0.00124487
0.00134171
0.00145638
0.00159976
0.00177887
0.00199884
0.00219667
0.0022782
0.00211292
0.00159398
0.000637262
0.00101684
0.001045
0.000977678
0.000931923
0.000900789
0.000895953
0.000921446
0.000949947
0.000980548
0.00101851
0.00107735
0.00117057
0.00130869
0.00151462
0.00179657
0.00211054
0.00225488
0.0022271
0.00183022
0.000926664
0.00115833
0.00102279
0.000902218
0.000821221
0.000780569
0.000758231
0.00074322
0.000726664
0.000719583
0.000720956
0.000758415
0.000838361
0.00098287
0.00122247
0.00158635
0.00207107
0.00236699
0.00240861
0.00200846
0.00108905
0.00115454
0.000960232
0.000799896
0.000714655
0.000658741
0.000609299
0.000558427
0.000509136
0.000477771
0.000465782
0.000476992
0.00054421
0.000679254
0.000926894
0.00134399
0.00197399
0.00252687
0.00266829
0.00215276
0.00112028
0.00111399
0.00086832
0.000709462
0.000621081
0.000550501
0.000480243
0.000409172
0.000346496
0.000305626
0.00028827
0.000286874
0.000334437
0.000445415
0.000669901
0.00109542
0.00182547
0.00267895
0.00296511
0.0022655
0.00110369
0.00102776
0.000783907
0.000635054
0.000545863
0.00046614
0.00038512
0.000307688
0.000244592
0.000204341
0.000186404
0.00018307
0.000212359
0.000292078
0.000474467
0.000866762
0.00162844
0.00276422
0.00332569
0.00235783
0.00106136
0.000927783
0.000710888
0.000576846
0.00048989
0.00040696
0.000323241
0.000247289
0.000188905
0.000153122
0.000137415
0.000134641
0.000153862
0.000208604
0.000346335
0.000690741
0.00146986
0.00279084
0.00368228
0.00242303
0.000976473
0.00084353
0.000652398
0.000533452
0.000450844
0.000369428
0.000288097
0.000216387
0.00016369
0.000131785
0.000117544
0.000115853
0.000129659
0.000169454
0.000272259
0.000557568
0.00130656
0.00279292
0.0040615
0.00247285
0.000888901
0.000770251
0.000605854
0.00050126
0.000424789
0.00034802
0.000271427
0.000207289
0.000159895
0.000129737
0.000114234
0.000112145
0.0001228
0.000154876
0.000238035
0.0004769
0.00117133
0.00275687
0.00440094
0.00249719
0.000812835
0.000724583
0.000573979
0.000480038
0.000409051
0.000338734
0.000271495
0.000210866
0.000165532
0.000136327
0.000121014
0.000118873
0.000126357
0.000152589
0.000226866
0.000438652
0.00107125
0.00272668
0.00469958
0.00250795
0.000730586
0.00068476
0.000555706
0.00046763
0.000403018
0.000339983
0.00027679
0.000221591
0.000179908
0.000152245
0.000136616
0.000134621
0.000141289
0.000164637
0.000229405
0.000425884
0.001023
0.00271141
0.0048557
0.00250995
0.000654634
0.000666413
0.00056134
0.000471769
0.000407527
0.000347349
0.000289926
0.000241085
0.000202931
0.000176765
0.000160447
0.000158685
0.000165354
0.000188904
0.000253078
0.000438503
0.00100696
0.00270797
0.00491546
0.00250321
0.000568017
0.00064019
0.000573423
0.00048731
0.00042312
0.000365203
0.000312265
0.000267363
0.000232163
0.000208067
0.000191631
0.000191173
0.000198758
0.000225008
0.000294519
0.00048831
0.00104155
0.00275213
0.00487603
0.00246193
0.000479875
0.000628648
0.000601499
0.000530932
0.00046307
0.000403926
0.000351567
0.00030722
0.000272135
0.0002484
0.000232222
0.000233364
0.000244176
0.000278179
0.000363796
0.000590965
0.00116822
0.00287458
0.00460377
0.00238015
0.000381263
0.000578667
0.000611858
0.000589211
0.000538664
0.000480508
0.000424867
0.000376556
0.000338489
0.000312209
0.000299546
0.000304419
0.000324831
0.000381114
0.000511345
0.000834478
0.00149753
0.00316502
0.00414976
0.00224572
0.000256789
0.000516113
0.000678594
0.000729043
0.000714904
0.000668151
0.000605242
0.000549706
0.000508163
0.000485338
0.000491081
0.000518917
0.000584019
0.000723292
0.00100348
0.00164946
0.00246875
0.003763
0.00386338
0.00205929
0.00027967
0.000526952
0.000902318
0.00107652
0.00114311
0.00114277
0.0011331
0.0011371
0.00116395
0.00123109
0.00136646
0.00159401
0.00190413
0.00241089
0.00304553
0.00402347
0.00467691
0.00448096
0.00382924
0.00179816
0.000202581
0.000317531
0.000582714
0.000841002
0.00104143
0.0011695
0.00124505
0.00129499
0.00131902
0.00134147
0.00135293
0.00137571
0.00139396
0.00143376
0.00146204
0.00152882
0.00160234
0.00168378
0.0016659
0.00148768
)
;

boundaryField
{
    movingWall
    {
        Cmu             0.09;
        kappa           0.41;
        E               9.8;
        type            epsilonWallFunction;
        value           nonuniform List<scalar> 
20
(
0.000202581
0.000317531
0.000582714
0.000841002
0.00104143
0.0011695
0.00124505
0.00129499
0.00131902
0.00134147
0.00135293
0.00137571
0.00139396
0.00143376
0.00146204
0.00152882
0.00160234
0.00168378
0.0016659
0.00148768
)
;
    }
    fixedWalls
    {
        Cmu             0.09;
        kappa           0.41;
        E               9.8;
        type            epsilonWallFunction;
        value           nonuniform List<scalar> 
60
(
1.83785e-05
8.37751e-05
0.000278668
0.000637262
0.000926664
0.00108905
0.00112028
0.00110369
0.00106136
0.000976473
0.000888901
0.000812835
0.000730586
0.000654634
0.000568017
0.000479875
0.000381263
0.000256789
0.00027967
0.000202581
0.000598789
0.00123173
0.00159398
0.00183022
0.00200846
0.00215276
0.0022655
0.00235783
0.00242303
0.00247285
0.00249719
0.00250795
0.00250995
0.00250321
0.00246193
0.00238015
0.00224572
0.00205929
0.00179816
0.00148768
1.83785e-05
6.13977e-05
0.000261428
0.000560219
0.000769052
0.000927702
0.0010566
0.00117994
0.00128831
0.00139924
0.00150344
0.00161356
0.00172465
0.00180122
0.00183675
0.00184109
0.00171193
0.00135833
0.00083305
0.000598789
)
;
    }
    frontAndBack
    {
        type            empty;
    }
}


// ************************************************************************* //
