/*--------------------------------*- C++ -*----------------------------------*\
| =========                 |                                                 |
| \\      /  F ield         | OpenFOAM: The Open Source CFD Toolbox           |
|  \\    /   O peration     | Version:  5.0                                   |
|   \\  /    A nd           | Web:      www.OpenFOAM.org                      |
|    \\/     M anipulation  |                                                 |
\*---------------------------------------------------------------------------*/
FoamFile
{
    version     2.0;
    format      ascii;
    class       volScalarField;
    location    "7.5";
    object      k;
}
// * * * * * * * * * * * * * * * * * * * * * * * * * * * * * * * * * * * * * //

dimensions      [0 2 -2 0 0 0 0];

internalField   nonuniform List<scalar> 
400
(
5.74829e-06
1.92059e-05
8.17527e-05
0.000175154
0.000240428
0.00029002
0.000330312
0.000368863
0.000402739
0.000437413
0.000469987
0.000504408
0.000539134
0.00056306
0.000574163
0.000575517
0.000535136
0.000424598
0.000260404
0.000187172
2.61962e-05
9.40081e-05
0.000209446
0.000364295
0.000433008
0.000510602
0.000556261
0.000621528
0.000674344
0.000736476
0.000795215
0.000856674
0.000912194
0.000971605
0.00102513
0.00105258
0.0010594
0.00095713
0.000635684
0.000385018
8.71205e-05
0.000301394
0.00047082
0.000554027
0.00061286
0.000664627
0.000705652
0.000756785
0.000802294
0.000850324
0.000894481
0.000936944
0.000978124
0.00102509
0.00107233
0.00110831
0.00112154
0.00107701
0.000786037
0.000498246
0.000199216
0.000510268
0.000602037
0.000641871
0.000675281
0.000702325
0.000732838
0.000767046
0.000799004
0.000829699
0.000854427
0.000883066
0.000922648
0.00097556
0.00104461
0.00111669
0.00115059
0.00115359
0.000928372
0.000572082
0.000289687
0.000623742
0.000656074
0.000660589
0.000675621
0.000695861
0.000716374
0.000727442
0.000729679
0.000726014
0.000725946
0.000745614
0.000787344
0.000857053
0.000962486
0.00109909
0.00119798
0.00122318
0.00105404
0.000627789
0.000340429
0.000659062
0.000661945
0.000656956
0.000665201
0.000669261
0.000661337
0.000634093
0.000604785
0.000585463
0.000578191
0.000586067
0.000627539
0.000705876
0.00083552
0.00102275
0.0012219
0.00130424
0.00119225
0.000672884
0.000350175
0.000652911
0.000655402
0.000643982
0.000637814
0.000617733
0.000584568
0.000538026
0.000495436
0.000467356
0.000455999
0.000456427
0.000492642
0.00056881
0.000705411
0.000924759
0.0012235
0.00138234
0.00132256
0.000708115
0.000344988
0.00063574
0.000638737
0.000619307
0.000602827
0.000569029
0.000520687
0.000465045
0.000417698
0.000386763
0.00037353
0.000372235
0.000400157
0.000465781
0.000591804
0.000816208
0.00116614
0.00144975
0.00146243
0.000736964
0.000331753
0.000600928
0.00061076
0.000593378
0.000571987
0.000531026
0.000475944
0.00041804
0.000370958
0.000340569
0.000327352
0.00032594
0.000346999
0.000399967
0.000509808
0.000721692
0.0010909
0.00149806
0.00158458
0.000757339
0.000305216
0.000571288
0.000584546
0.000570705
0.000548199
0.000505368
0.000449249
0.000392841
0.000348256
0.00031927
0.000306026
0.000305322
0.000322088
0.000365227
0.000457357
0.000652648
0.00102194
0.0015208
0.00170907
0.0007729
0.000277844
0.000531466
0.000555464
0.00054899
0.00052909
0.000488843
0.000436055
0.00038432
0.000343135
0.000315249
0.000300627
0.000299905
0.000313722
0.000350557
0.000431344
0.00060675
0.000967089
0.00152962
0.00181297
0.000780504
0.000254067
0.000498119
0.000533858
0.000532076
0.00051682
0.000480845
0.000433913
0.000386409
0.000347271
0.000320371
0.000305802
0.000304961
0.000315179
0.000347348
0.000422186
0.000584412
0.000923932
0.00153235
0.00189949
0.000783861
0.00022836
0.000454154
0.000507509
0.000513375
0.000504544
0.00047762
0.000436396
0.000393716
0.000358445
0.000333584
0.000319437
0.000319525
0.000328755
0.000357739
0.000425191
0.000577554
0.000900893
0.00153304
0.00194125
0.000784484
0.000204619
0.000425956
0.000493093
0.000503162
0.000497447
0.000478713
0.000443147
0.000407252
0.000376456
0.000354145
0.000340946
0.000341778
0.000351457
0.000380284
0.000445805
0.00058962
0.000893124
0.00153007
0.00195426
0.000782367
0.000177548
0.000379971
0.000468241
0.000494174
0.000494231
0.000483091
0.000456491
0.000425753
0.000399255
0.00037989
0.000368768
0.000370542
0.000381415
0.000411566
0.000477727
0.000621167
0.000902394
0.0015271
0.00191493
0.000769454
0.000149998
0.000352353
0.0004556
0.000496182
0.000501738
0.000495325
0.000477912
0.000452424
0.000429199
0.000411447
0.000401892
0.000404619
0.000417233
0.000450502
0.0005212
0.000677082
0.000938737
0.00152671
0.00182118
0.000743884
0.000119182
0.000292253
0.000422089
0.000500253
0.000523461
0.000521684
0.000511331
0.000489599
0.000468039
0.000450725
0.000444321
0.000449233
0.000466537
0.000509046
0.000593119
0.00078196
0.00103443
0.00155067
0.00165806
0.000701856
8.02771e-05
0.000255415
0.000433058
0.000534781
0.000592851
0.000595085
0.000587806
0.00057036
0.000551379
0.000538776
0.000541761
0.000556723
0.000591959
0.000668147
0.000791006
0.00105817
0.00132943
0.00161596
0.00147903
0.000643582
8.74173e-05
0.000275682
0.000487982
0.000612019
0.000688681
0.00072105
0.000743508
0.000760477
0.000784052
0.000821746
0.000881961
0.00096978
0.00108957
0.00126575
0.00147183
0.00177126
0.00186394
0.00173649
0.00137048
0.000561961
6.33237e-05
9.92478e-05
0.000182124
0.000262856
0.000325494
0.000365511
0.000389115
0.000404717
0.000412219
0.000419229
0.000422804
0.000429914
0.000435614
0.000448041
0.000456874
0.000477738
0.00050071
0.000526173
0.00052059
0.00046491
)
;

boundaryField
{
    movingWall
    {
        type            kqRWallFunction;
        value           nonuniform List<scalar> 
20
(
6.33237e-05
9.92478e-05
0.000182124
0.000262856
0.000325494
0.000365511
0.000389115
0.000404717
0.000412219
0.000419229
0.000422804
0.000429914
0.000435614
0.000448041
0.000456874
0.000477738
0.00050071
0.000526173
0.00052059
0.00046491
)
;
    }
    fixedWalls
    {
        type            kqRWallFunction;
        value           nonuniform List<scalar> 
60
(
5.74829e-06
2.61962e-05
8.71205e-05
0.000199216
0.000289687
0.000340429
0.000350175
0.000344988
0.000331753
0.000305216
0.000277844
0.000254067
0.00022836
0.000204619
0.000177548
0.000149998
0.000119182
8.02771e-05
8.74173e-05
6.33237e-05
0.000187172
0.000385018
0.000498246
0.000572082
0.000627789
0.000672884
0.000708115
0.000736964
0.000757339
0.0007729
0.000780504
0.000783861
0.000784484
0.000782367
0.000769454
0.000743884
0.000701856
0.000643582
0.000561961
0.00046491
5.74829e-06
1.92059e-05
8.17527e-05
0.000175154
0.000240428
0.00029002
0.000330312
0.000368863
0.000402739
0.000437413
0.000469987
0.000504408
0.000539134
0.00056306
0.000574163
0.000575517
0.000535136
0.000424598
0.000260404
0.000187172
)
;
    }
    frontAndBack
    {
        type            empty;
    }
}


// ************************************************************************* //
