/*--------------------------------*- C++ -*----------------------------------*\
| =========                 |                                                 |
| \\      /  F ield         | OpenFOAM: The Open Source CFD Toolbox           |
|  \\    /   O peration     | Version:  5.0                                   |
|   \\  /    A nd           | Web:      www.OpenFOAM.org                      |
|    \\/     M anipulation  |                                                 |
\*---------------------------------------------------------------------------*/
FoamFile
{
    version     2.0;
    format      ascii;
    class       volScalarField;
    location    "7.5";
    object      nut;
}
// * * * * * * * * * * * * * * * * * * * * * * * * * * * * * * * * * * * * * //

dimensions      [0 2 -1 0 0 0 0];

internalField   nonuniform List<scalar> 
400
(
1.61812e-07
5.40703e-07
2.30089e-06
4.92859e-06
6.76485e-06
8.16e-06
9.29349e-06
1.0378e-05
1.1331e-05
1.23065e-05
1.32229e-05
1.41912e-05
1.51682e-05
1.58411e-05
1.61534e-05
1.61914e-05
1.50551e-05
1.19453e-05
7.32598e-06
5.26564e-06
7.37231e-07
3.31365e-06
6.11378e-06
1.28522e-05
1.68635e-05
2.27698e-05
2.67408e-05
3.20289e-05
3.61025e-05
4.00388e-05
4.29795e-05
4.52009e-05
4.61256e-05
4.67729e-05
4.65838e-05
4.43886e-05
4.29782e-05
3.49101e-05
1.93874e-05
1.08315e-05
2.45129e-06
1.10166e-05
2.05643e-05
2.74779e-05
3.40239e-05
4.02585e-05
4.56101e-05
5.04599e-05
5.35881e-05
5.61853e-05
5.78444e-05
5.88856e-05
5.9123e-05
5.91166e-05
5.81772e-05
5.5308e-05
5.15354e-05
4.58238e-05
2.63176e-05
1.40168e-05
5.60496e-06
2.30456e-05
3.12158e-05
3.79265e-05
4.40384e-05
4.92829e-05
5.39477e-05
5.74665e-05
6.04841e-05
6.31851e-05
6.45099e-05
6.51434e-05
6.54515e-05
6.54507e-05
6.48399e-05
6.24685e-05
5.64531e-05
5.3116e-05
3.48295e-05
1.60937e-05
8.1504e-06
3.02288e-05
3.78759e-05
4.35306e-05
5.00251e-05
5.58311e-05
6.09145e-05
6.408e-05
6.59436e-05
6.59251e-05
6.57873e-05
6.59727e-05
6.65489e-05
6.72608e-05
6.82015e-05
6.85343e-05
6.23658e-05
5.68884e-05
4.15139e-05
1.76606e-05
9.57736e-06
3.386e-05
4.10686e-05
4.85603e-05
5.57253e-05
6.11955e-05
6.46038e-05
6.4801e-05
6.46562e-05
6.45686e-05
6.45957e-05
6.48076e-05
6.51265e-05
6.60187e-05
6.77839e-05
7.00459e-05
6.80726e-05
6.05864e-05
4.79455e-05
1.8929e-05
9.85116e-06
3.44405e-05
4.45223e-05
5.26091e-05
5.89499e-05
6.23858e-05
6.404e-05
6.36713e-05
6.37556e-05
6.43203e-05
6.49189e-05
6.53575e-05
6.53118e-05
6.53751e-05
6.68524e-05
7.02616e-05
7.38038e-05
6.41959e-05
5.30927e-05
1.99198e-05
9.70517e-06
3.53923e-05
4.68406e-05
5.43555e-05
5.99161e-05
6.25164e-05
6.33578e-05
6.32589e-05
6.41984e-05
6.58836e-05
6.73657e-05
6.81177e-05
6.78628e-05
6.68509e-05
6.64343e-05
6.91743e-05
7.51576e-05
6.84316e-05
5.78779e-05
2.07312e-05
9.33276e-06
3.503e-05
4.72261e-05
5.49345e-05
6.01057e-05
6.23625e-05
6.30708e-05
6.36023e-05
6.55614e-05
6.81734e-05
7.01842e-05
7.10136e-05
7.04314e-05
6.90191e-05
6.75396e-05
6.78626e-05
7.28679e-05
7.23714e-05
6.13694e-05
2.13041e-05
8.58613e-06
3.48219e-05
4.71377e-05
5.49503e-05
5.9992e-05
6.22197e-05
6.30489e-05
6.41864e-05
6.66837e-05
6.96133e-05
7.17066e-05
7.24187e-05
7.20094e-05
7.08462e-05
6.91465e-05
6.87548e-05
7.19388e-05
7.45295e-05
6.47257e-05
2.17416e-05
7.81611e-06
3.30036e-05
4.58338e-05
5.41139e-05
5.931e-05
6.17984e-05
6.3048e-05
6.41288e-05
6.62732e-05
6.89423e-05
7.1204e-05
7.21819e-05
7.21332e-05
7.14126e-05
7.03477e-05
6.94758e-05
7.18616e-05
7.63829e-05
6.72166e-05
2.19553e-05
7.1472e-06
3.08191e-05
4.46887e-05
5.30779e-05
5.87683e-05
6.14318e-05
6.24147e-05
6.37279e-05
6.55688e-05
6.77589e-05
6.95486e-05
7.04125e-05
7.0755e-05
7.11619e-05
7.07099e-05
7.00746e-05
7.17188e-05
7.75043e-05
6.90967e-05
2.20496e-05
6.42406e-06
2.71088e-05
4.17144e-05
5.07236e-05
5.68481e-05
6.03879e-05
6.19231e-05
6.29587e-05
6.42742e-05
6.57825e-05
6.72217e-05
6.82555e-05
6.88461e-05
6.99599e-05
7.09266e-05
7.04915e-05
7.14027e-05
7.80105e-05
6.9848e-05
2.20671e-05
5.75619e-06
2.45035e-05
3.89829e-05
4.82979e-05
5.46487e-05
5.93783e-05
6.09607e-05
6.19156e-05
6.28525e-05
6.3857e-05
6.52055e-05
6.62511e-05
6.72313e-05
6.88997e-05
7.0677e-05
7.13535e-05
7.12943e-05
7.78069e-05
6.99265e-05
2.20073e-05
4.99476e-06
2.02971e-05
3.44117e-05
4.5102e-05
5.19565e-05
5.7513e-05
6.00599e-05
6.10177e-05
6.17947e-05
6.24247e-05
6.38678e-05
6.46383e-05
6.58741e-05
6.77521e-05
6.97413e-05
7.11155e-05
7.03648e-05
7.62623e-05
6.76837e-05
2.16437e-05
4.21973e-06
1.77742e-05
3.10581e-05
4.17336e-05
4.89272e-05
5.46666e-05
5.84695e-05
5.99632e-05
6.09223e-05
6.13364e-05
6.25977e-05
6.31394e-05
6.41649e-05
6.56617e-05
6.72037e-05
6.98173e-05
6.78901e-05
7.29763e-05
6.4839e-05
2.09242e-05
3.35307e-06
1.32841e-05
2.6206e-05
3.82253e-05
4.57819e-05
5.09749e-05
5.53851e-05
5.72921e-05
5.82454e-05
5.85625e-05
5.93162e-05
5.96642e-05
6.03055e-05
6.1193e-05
6.19174e-05
6.59473e-05
6.43088e-05
6.83763e-05
5.9624e-05
1.97416e-05
2.25865e-06
1.13761e-05
2.48728e-05
3.53055e-05
4.42472e-05
4.77009e-05
5.13785e-05
5.3261e-05
5.38444e-05
5.38288e-05
5.37905e-05
5.37556e-05
5.40007e-05
5.55485e-05
5.61168e-05
6.10961e-05
6.44311e-05
6.24551e-05
5.09598e-05
1.81023e-05
2.45919e-06
1.29804e-05
2.37515e-05
3.1315e-05
3.73415e-05
4.09464e-05
4.39082e-05
4.57738e-05
4.75334e-05
4.93659e-05
5.12324e-05
5.31004e-05
5.61122e-05
5.98085e-05
6.40173e-05
7.01786e-05
6.68572e-05
6.05642e-05
4.41441e-05
1.58061e-05
1.78146e-06
2.79189e-06
5.12299e-06
7.394e-06
9.15579e-06
1.02812e-05
1.09449e-05
1.13836e-05
1.15944e-05
1.17914e-05
1.18917e-05
1.20915e-05
1.22517e-05
1.26009e-05
1.28492e-05
1.34359e-05
1.40819e-05
1.47983e-05
1.46415e-05
1.30759e-05
)
;

boundaryField
{
    movingWall
    {
        type            nutkWallFunction;
        Cmu             0.09;
        kappa           0.41;
        E               9.8;
        value           uniform 0;
    }
    fixedWalls
    {
        type            nutkWallFunction;
        Cmu             0.09;
        kappa           0.41;
        E               9.8;
        value           uniform 0;
    }
    frontAndBack
    {
        type            empty;
    }
}


// ************************************************************************* //
