/*--------------------------------*- C++ -*----------------------------------*\
| =========                 |                                                 |
| \\      /  F ield         | OpenFOAM: The Open Source CFD Toolbox           |
|  \\    /   O peration     | Version:  5.0                                   |
|   \\  /    A nd           | Web:      www.OpenFOAM.org                      |
|    \\/     M anipulation  |                                                 |
\*---------------------------------------------------------------------------*/
FoamFile
{
    version     2.0;
    format      ascii;
    class       volScalarField;
    location    "7.5";
    object      p;
}
// * * * * * * * * * * * * * * * * * * * * * * * * * * * * * * * * * * * * * //

dimensions      [0 2 -2 0 0 0 0];

internalField   nonuniform List<scalar> 
400
(
5.84852e-08
-7.47192e-05
-0.000146945
-0.000330719
-0.00110268
-0.00246111
-0.00407262
-0.00562373
-0.00688084
-0.00772074
-0.00804211
-0.00775817
-0.00684779
-0.00528975
-0.00308154
-0.000348153
0.00261859
0.00524392
0.00687319
0.00722499
7.54731e-05
-1.57118e-05
-0.000211545
-0.000775494
-0.00181891
-0.00327181
-0.00485766
-0.00634042
-0.00755171
-0.00837501
-0.00871412
-0.00852213
-0.00775831
-0.00636469
-0.00435104
-0.00178614
0.00109618
0.00382812
0.00577781
0.00656433
0.000242573
-7.35131e-05
-0.000658526
-0.00164614
-0.00302077
-0.004598
-0.00617386
-0.00759868
-0.00875887
-0.00952819
-0.00984603
-0.00968315
-0.00901536
-0.0078283
-0.00610961
-0.00389081
-0.0013035
0.00136056
0.00360348
0.00474243
2.9809e-05
-0.000508427
-0.00150802
-0.00290994
-0.00454813
-0.0062221
-0.00777814
-0.00910653
-0.0101176
-0.0107677
-0.011035
-0.0109013
-0.0103445
-0.00935466
-0.00792475
-0.00607115
-0.00386006
-0.00145553
0.000779684
0.00198424
-0.000739794
-0.00146558
-0.0027569
-0.00439548
-0.00614173
-0.00780863
-0.00927562
-0.0104703
-0.0113519
-0.0119075
-0.0121305
-0.0120147
-0.0115525
-0.0107403
-0.00957442
-0.00806358
-0.00624139
-0.0041925
-0.00216714
-0.00103075
-0.00203629
-0.00284188
-0.00423183
-0.00591056
-0.00762842
-0.00920805
-0.0105526
-0.0116179
-0.0123902
-0.0128685
-0.0130549
-0.012953
-0.0125662
-0.0118979
-0.0109506
-0.00973046
-0.00825735
-0.00658072
-0.00494147
-0.00386902
-0.00354643
-0.00435589
-0.00569714
-0.00729772
-0.00890983
-0.0103649
-0.0115821
-0.0125326
-0.0132142
-0.0136324
-0.0137942
-0.0137072
-0.0133797
-0.0128211
-0.012041
-0.011048
-0.00985995
-0.00851268
-0.00724263
-0.00629088
-0.00495691
-0.00572084
-0.00695468
-0.00843863
-0.00992309
-0.0112525
-0.0123569
-0.0132147
-0.0138278
-0.0142042
-0.0143522
-0.01428
-0.0139972
-0.0135174
-0.0128568
-0.0120299
-0.011059
-0.00997431
-0.00900883
-0.00816967
-0.00605455
-0.00676834
-0.00788536
-0.00925906
-0.0106297
-0.0118571
-0.0128772
-0.0136704
-0.0142385
-0.0145894
-0.0147308
-0.0146703
-0.0144172
-0.013987
-0.0134022
-0.0126858
-0.0118728
-0.0109693
-0.010224
-0.00948609
-0.00676258
-0.00739602
-0.00842428
-0.00972135
-0.0110102
-0.0121724
-0.013144
-0.0139029
-0.0144489
-0.0147881
-0.0149274
-0.0148731
-0.0146342
-0.0142272
-0.0136796
-0.0130208
-0.0123175
-0.0115053
-0.0109422
-0.0102317
-0.00704099
-0.00759768
-0.00856872
-0.0098144
-0.0110602
-0.0121972
-0.0131566
-0.013911
-0.0144564
-0.0147965
-0.0149368
-0.0148827
-0.0146432
-0.0142349
-0.0136898
-0.0130376
-0.0124084
-0.011581
-0.011203
-0.0104114
-0.00688181
-0.00739621
-0.00832824
-0.00954707
-0.0107869
-0.0119329
-0.0129127
-0.0136907
-0.0142563
-0.0146099
-0.014755
-0.0146957
-0.0144411
-0.0140089
-0.0134345
-0.0127654
-0.0121146
-0.0112408
-0.0110543
-0.0100142
-0.00636192
-0.00685798
-0.00776051
-0.0089488
-0.010205
-0.0113861
-0.0124133
-0.0132403
-0.0138469
-0.0142274
-0.0143823
-0.014314
-0.014032
-0.0135553
-0.0129251
-0.0121949
-0.0114692
-0.0105517
-0.0104639
-0.00906372
-0.00560174
-0.00606481
-0.00692209
-0.00806346
-0.00933123
-0.010563
-0.0116609
-0.0125616
-0.0132308
-0.0136539
-0.0138266
-0.0137489
-0.0134303
-0.0128916
-0.0121804
-0.0113504
-0.0105186
-0.00953343
-0.00941896
-0.00762555
-0.00476123
-0.00514842
-0.00589875
-0.00695426
-0.00820831
-0.00949329
-0.0106785
-0.0116742
-0.0124269
-0.0129096
-0.0131118
-0.0130299
-0.0126712
-0.0120581
-0.0112449
-0.0102815
-0.00930706
-0.00818533
-0.00793061
-0.00573821
-0.00401258
-0.00422166
-0.00475726
-0.00566617
-0.00687993
-0.00821563
-0.00950053
-0.0106106
-0.0114687
-0.0120314
-0.01228
-0.0122066
-0.0118196
-0.0111315
-0.0102022
-0.00907035
-0.00789194
-0.00652368
-0.00598389
-0.00319647
-0.00351636
-0.0034022
-0.00360476
-0.00430675
-0.00545513
-0.00683326
-0.00822204
-0.00945918
-0.0104413
-0.0111049
-0.0114219
-0.0113781
-0.0109842
-0.0102315
-0.00917794
-0.00783171
-0.00633938
-0.00453429
-0.0033451
0.000820826
-0.00327589
-0.00267646
-0.00248678
-0.0029654
-0.0040394
-0.00544864
-0.0069359
-0.00830751
-0.00943071
-0.0102186
-0.0106288
-0.0106373
-0.0102531
-0.00946508
-0.00829662
-0.0066876
-0.00473246
-0.00211503
0.000590105
0.00811822
-0.0032352
-0.00206328
-0.00159907
-0.00191025
-0.00291521
-0.0043461
-0.0059186
-0.00741099
-0.00866204
-0.0095722
-0.0100843
-0.0101741
-0.00982377
-0.00901154
-0.00770497
-0.00580832
-0.00322363
0.000956869
0.00698821
0.0199785
-0.00379044
-0.00073687
-0.000160228
-0.000650532
-0.00170886
-0.00319326
-0.00487311
-0.00649179
-0.0078668
-0.00888134
-0.0094771
-0.00961687
-0.00927944
-0.00843605
-0.00704495
-0.00492904
-0.00124863
0.00551043
0.0173513
0.0352214
)
;

boundaryField
{
    movingWall
    {
        type            zeroGradient;
    }
    fixedWalls
    {
        type            zeroGradient;
    }
    frontAndBack
    {
        type            empty;
    }
}


// ************************************************************************* //
