/*--------------------------------*- C++ -*----------------------------------*\
| =========                 |                                                 |
| \\      /  F ield         | OpenFOAM: The Open Source CFD Toolbox           |
|  \\    /   O peration     | Version:  5.0                                   |
|   \\  /    A nd           | Web:      www.OpenFOAM.org                      |
|    \\/     M anipulation  |                                                 |
\*---------------------------------------------------------------------------*/
FoamFile
{
    version     2.0;
    format      ascii;
    class       surfaceScalarField;
    location    "7.5";
    object      phi;
}
// * * * * * * * * * * * * * * * * * * * * * * * * * * * * * * * * * * * * * //

dimensions      [0 3 -1 0 0 0 0];

internalField   nonuniform List<scalar> 
760
(
1.29068e-07
-1.29074e-07
-1.08256e-07
2.37323e-07
-8.80865e-07
7.72609e-07
-2.14169e-06
1.26083e-06
-3.51333e-06
1.37164e-06
-4.74232e-06
1.22899e-06
-5.78547e-06
1.04314e-06
-6.61415e-06
8.28676e-07
-7.22408e-06
6.09932e-07
-7.63244e-06
4.08358e-07
-7.8515e-06
2.19062e-07
-7.87552e-06
2.40175e-08
-7.69362e-06
-1.8189e-07
-7.30651e-06
-3.87117e-07
-6.64886e-06
-6.57646e-07
-5.69273e-06
-9.5613e-07
-4.38473e-06
-1.308e-06
-2.76584e-06
-1.61889e-06
-1.05774e-06
-1.7081e-06
-1.05774e-06
-3.52243e-07
2.23169e-07
-1.29714e-06
1.18222e-06
-2.62593e-06
2.1014e-06
-3.86803e-06
2.50293e-06
-4.91624e-06
2.41985e-06
-5.8394e-06
2.15216e-06
-6.59263e-06
1.79637e-06
-7.18471e-06
1.42075e-06
-7.63031e-06
1.05554e-06
-7.92387e-06
7.01915e-07
-8.0517e-06
3.46893e-07
-8.00413e-06
-2.35519e-08
-7.81071e-06
-3.75317e-07
-7.42615e-06
-7.71675e-07
-6.84362e-06
-1.24018e-06
-6.01783e-06
-1.78192e-06
-4.90915e-06
-2.41668e-06
-3.45751e-06
-3.07053e-06
-1.69658e-06
-3.46902e-06
-2.75433e-06
-9.50475e-07
1.17364e-06
-2.23279e-06
2.46453e-06
-3.38028e-06
3.24888e-06
-4.32688e-06
3.44953e-06
-5.12445e-06
3.21742e-06
-5.78286e-06
2.81056e-06
-6.29984e-06
2.31336e-06
-6.66741e-06
1.78832e-06
-6.90403e-06
1.29216e-06
-7.01223e-06
8.10123e-07
-7.01543e-06
3.5009e-07
-6.92777e-06
-1.11214e-07
-6.72669e-06
-5.764e-07
-6.39963e-06
-1.09873e-06
-5.93324e-06
-1.70657e-06
-5.29014e-06
-2.42502e-06
-4.43736e-06
-3.26947e-06
-3.30881e-06
-4.19908e-06
-1.82725e-06
-4.95058e-06
-4.58158e-06
-1.18731e-06
2.36095e-06
-2.36959e-06
3.64682e-06
-3.32802e-06
4.20731e-06
-4.06489e-06
4.18641e-06
-4.6441e-06
3.79664e-06
-5.08002e-06
3.24648e-06
-5.38805e-06
2.62138e-06
-5.59553e-06
1.9958e-06
-5.71236e-06
1.40898e-06
-5.75469e-06
8.52454e-07
-5.7244e-06
3.19803e-07
-5.62465e-06
-2.10962e-07
-5.44151e-06
-7.59546e-07
-5.17328e-06
-1.36696e-06
-4.8098e-06
-2.07005e-06
-4.32569e-06
-2.90913e-06
-3.6845e-06
-3.91066e-06
-2.82574e-06
-5.05784e-06
-1.61871e-06
-6.15762e-06
-6.20028e-06
-1.12874e-06
3.48969e-06
-2.12886e-06
4.64693e-06
-2.90059e-06
4.97905e-06
-3.4737e-06
4.75952e-06
-3.89239e-06
4.21533e-06
-4.18229e-06
3.53637e-06
-4.37452e-06
2.81362e-06
-4.49531e-06
2.11659e-06
-4.55245e-06
1.46612e-06
-4.55441e-06
8.54405e-07
-4.50245e-06
2.67849e-07
-4.39771e-06
-3.15703e-07
-4.23585e-06
-9.21402e-07
-4.01806e-06
-1.58475e-06
-3.74012e-06
-2.34799e-06
-3.38688e-06
-3.26237e-06
-2.92208e-06
-4.37545e-06
-2.27732e-06
-5.7026e-06
-1.35089e-06
-7.08404e-06
-7.55118e-06
-9.31118e-07
4.42081e-06
-1.72803e-06
5.44384e-06
-2.33414e-06
5.58515e-06
-2.77138e-06
5.19676e-06
-3.07582e-06
4.51977e-06
-3.277e-06
3.73755e-06
-3.40556e-06
2.94218e-06
-3.48022e-06
2.19125e-06
-3.50868e-06
1.49459e-06
-3.49568e-06
8.41403e-07
-3.44189e-06
2.14057e-07
-3.34687e-06
-4.10721e-07
-3.20964e-06
-1.05864e-06
-3.03249e-06
-1.7619e-06
-2.81774e-06
-2.56274e-06
-2.56198e-06
-3.51813e-06
-2.24675e-06
-4.69067e-06
-1.80489e-06
-6.14447e-06
-1.08952e-06
-7.79941e-06
-8.64069e-06
-7.05234e-07
5.12604e-06
-1.29355e-06
6.03216e-06
-1.74324e-06
6.03485e-06
-2.06353e-06
5.51704e-06
-2.28395e-06
4.74019e-06
-2.42892e-06
3.88253e-06
-2.52158e-06
3.03484e-06
-2.57495e-06
2.24461e-06
-2.59555e-06
1.51519e-06
-2.58603e-06
8.31892e-07
-2.54525e-06
1.73274e-07
-2.47098e-06
-4.84987e-07
-2.36204e-06
-1.16758e-06
-2.22157e-06
-1.90237e-06
-2.05697e-06
-2.72734e-06
-1.87299e-06
-3.70211e-06
-1.66035e-06
-4.90331e-06
-1.36467e-06
-6.44015e-06
-8.91089e-07
-8.27299e-06
-9.53178e-06
-4.57404e-07
5.58345e-06
-8.65559e-07
6.44031e-06
-1.1728e-06
6.34209e-06
-1.39343e-06
5.73767e-06
-1.54788e-06
4.89464e-06
-1.65315e-06
3.9878e-06
-1.72419e-06
3.10588e-06
-1.76889e-06
2.28931e-06
-1.7914e-06
1.5377e-06
-1.79254e-06
8.33028e-07
-1.77004e-06
1.50774e-07
-1.72102e-06
-5.34008e-07
-1.64402e-06
-1.24458e-06
-1.54215e-06
-2.00425e-06
-1.42543e-06
-2.84406e-06
-1.30567e-06
-3.82187e-06
-1.17965e-06
-5.02933e-06
-1.00221e-06
-6.61759e-06
-6.88777e-07
-8.58643e-06
-1.02206e-05
-2.43369e-07
5.82682e-06
-4.67696e-07
6.66464e-06
-6.38989e-07
6.51338e-06
-7.7066e-07
5.86934e-06
-8.67787e-07
4.99177e-06
-9.39965e-07
4.05998e-06
-9.94145e-07
3.16006e-06
-1.0333e-06
2.32847e-06
-1.05893e-06
1.56333e-06
-1.07059e-06
8.44692e-07
-1.06619e-06
1.4637e-07
-1.04343e-06
-5.56771e-07
-1.00129e-06
-1.28672e-06
-9.42721e-07
-2.06281e-06
-8.77969e-07
-2.90881e-06
-8.21774e-07
-3.87806e-06
-7.76678e-07
-5.07443e-06
-7.05739e-07
-6.68853e-06
-5.47939e-07
-8.74423e-06
-1.07685e-05
-2.22942e-08
5.84911e-06
-9.43914e-08
6.73674e-06
-1.48055e-07
6.56704e-06
-1.9182e-07
5.91311e-06
-2.31279e-07
5.03123e-06
-2.69051e-07
4.09775e-06
-3.04822e-07
3.19583e-06
-3.36459e-07
2.3601e-06
-3.62742e-07
1.58962e-06
-3.8268e-07
8.64629e-07
-3.95179e-07
1.58869e-07
-3.9918e-07
-5.52769e-07
-3.94639e-07
-1.29126e-06
-3.84324e-07
-2.07313e-06
-3.77873e-07
-2.91526e-06
-3.86402e-07
-3.86954e-06
-4.31397e-07
-5.02943e-06
-4.58277e-07
-6.66165e-06
-4.13097e-07
-8.7894e-06
-1.11816e-05
1.80414e-07
5.6687e-06
2.74008e-07
6.64314e-06
3.44309e-07
6.49674e-06
3.73697e-07
5.88372e-06
3.86489e-07
5.01844e-06
3.8348e-07
4.10076e-06
3.69357e-07
3.20995e-06
3.48996e-07
2.38046e-06
3.25275e-07
1.61334e-06
2.9921e-07
8.90695e-07
2.7065e-07
1.87429e-07
2.39115e-07
-5.21234e-07
2.03438e-07
-1.25558e-06
1.61001e-07
-2.03069e-06
1.04037e-07
-2.8583e-06
5.77116e-09
-3.77127e-06
-1.05483e-07
-4.91818e-06
-2.46451e-07
-6.52068e-06
-3.20894e-07
-8.71496e-06
-1.15025e-05
3.71835e-07
5.29686e-06
6.18078e-07
6.3969e-06
8.03965e-07
6.31085e-06
9.20107e-07
5.76758e-06
9.94036e-07
4.94451e-06
1.03407e-06
4.06072e-06
1.04877e-06
3.19526e-06
1.04536e-06
2.38387e-06
1.02803e-06
1.63067e-06
9.9791e-07
9.20816e-07
9.53639e-07
2.31699e-07
8.93145e-07
-4.6074e-07
8.1354e-07
-1.17598e-06
7.1179e-07
-1.92894e-06
5.80783e-07
-2.72729e-06
4.15426e-07
-3.60591e-06
1.94068e-07
-4.69682e-06
-6.73707e-08
-6.25924e-06
-2.18491e-07
-8.56384e-06
-1.1721e-05
5.58095e-07
4.73877e-06
9.5263e-07
6.00237e-06
1.25058e-06
6.01291e-06
1.45889e-06
5.55927e-06
1.60186e-06
4.80153e-06
1.6949e-06
3.96768e-06
1.74785e-06
3.14231e-06
1.76901e-06
2.36272e-06
1.76342e-06
1.63626e-06
1.73233e-06
9.51908e-07
1.67327e-06
2.90751e-07
1.58306e-06
-3.70524e-07
1.45708e-06
-1.05e-06
1.29131e-06
-1.76316e-06
1.08171e-06
-2.5177e-06
8.22976e-07
-3.34718e-06
4.91799e-07
-4.36564e-06
1.35162e-07
-5.9026e-06
-9.94092e-08
-8.32927e-06
-1.18204e-05
7.15361e-07
4.02341e-06
1.2468e-06
5.47093e-06
1.65412e-06
5.60558e-06
1.97242e-06
5.24097e-06
2.20361e-06
4.57034e-06
2.36618e-06
3.80512e-06
2.47166e-06
3.03683e-06
2.52886e-06
2.30552e-06
2.54325e-06
1.62186e-06
2.51628e-06
9.78879e-07
2.44479e-06
3.62247e-07
2.32411e-06
-2.49843e-07
2.14945e-06
-8.7534e-07
1.91525e-06
-1.52897e-06
1.61831e-06
-2.22076e-06
1.25756e-06
-2.98643e-06
8.19209e-07
-3.92729e-06
3.73889e-07
-5.45729e-06
5.77979e-08
-8.01318e-06
-1.17626e-05
8.4703e-07
3.17638e-06
1.49662e-06
4.82134e-06
2.01965e-06
5.08255e-06
2.4574e-06
4.80322e-06
2.79483e-06
4.2329e-06
3.04417e-06
3.55577e-06
3.21746e-06
2.86354e-06
3.32375e-06
2.19922e-06
3.36831e-06
1.57731e-06
3.35281e-06
9.94381e-07
3.27378e-06
4.41274e-07
3.12342e-06
-9.94834e-08
2.89957e-06
-6.51488e-07
2.59451e-06
-1.22391e-06
2.20452e-06
-1.83077e-06
1.73688e-06
-2.51879e-06
1.18355e-06
-3.37395e-06
6.31293e-07
-4.90503e-06
1.94021e-07
-7.57591e-06
-1.15686e-05
8.51149e-07
2.32523e-06
1.6042e-06
4.0683e-06
2.26945e-06
4.41729e-06
2.84973e-06
4.22295e-06
3.32342e-06
3.75921e-06
3.68867e-06
3.19053e-06
3.9542e-06
2.598e-06
4.12927e-06
2.02416e-06
4.21902e-06
1.48756e-06
4.22577e-06
9.87637e-07
4.14712e-06
5.19927e-07
3.97723e-06
7.04065e-08
3.70777e-06
-3.8203e-07
3.3366e-06
-8.5275e-07
2.85647e-06
-1.35063e-06
2.28447e-06
-1.94679e-06
1.61335e-06
-2.70284e-06
9.45968e-07
-4.23764e-06
3.87471e-07
-7.01741e-06
-1.11811e-05
7.6073e-07
1.5645e-06
1.58908e-06
3.23995e-06
2.40934e-06
3.59703e-06
3.14693e-06
3.48537e-06
3.7715e-06
3.13464e-06
4.27307e-06
2.68896e-06
4.65033e-06
2.22074e-06
4.91028e-06
1.76422e-06
5.0586e-06
1.33923e-06
5.09932e-06
9.4692e-07
5.03335e-06
5.85891e-07
4.86134e-06
2.42417e-07
4.56541e-06
-8.6098e-08
4.15635e-06
-4.43693e-07
3.61459e-06
-8.08862e-07
2.96193e-06
-1.29413e-06
2.19619e-06
-1.9371e-06
1.41097e-06
-3.45243e-06
6.64466e-07
-6.2709e-06
-1.05166e-05
2.69129e-07
1.29537e-06
1.22003e-06
2.28904e-06
2.22807e-06
2.58899e-06
3.16843e-06
2.54501e-06
3.9803e-06
2.32277e-06
4.64716e-06
2.02209e-06
5.16731e-06
1.70059e-06
5.54365e-06
1.38788e-06
5.78469e-06
1.0982e-06
5.89731e-06
8.34298e-07
5.8872e-06
5.95994e-07
5.76094e-06
3.68684e-07
5.51781e-06
1.57032e-07
5.15372e-06
-7.96086e-08
4.63702e-06
-2.92161e-07
3.99319e-06
-6.50296e-07
3.19615e-06
-1.14006e-06
2.32099e-06
-2.57727e-06
1.19889e-06
-5.1488e-06
-9.31774e-06
-5.38135e-07
1.8335e-06
5.16883e-07
1.23402e-06
1.83063e-06
1.27524e-06
3.04512e-06
1.33052e-06
4.09547e-06
1.27242e-06
4.97768e-06
1.13987e-06
5.69572e-06
9.82549e-07
6.24668e-06
8.36928e-07
6.64991e-06
6.94964e-07
6.91061e-06
5.73592e-07
7.05224e-06
4.54372e-07
7.06893e-06
3.51994e-07
6.97835e-06
2.47604e-07
6.7546e-06
1.44144e-07
6.42827e-06
3.41736e-08
5.97529e-06
-1.97322e-07
5.33868e-06
-5.03451e-07
4.43625e-06
-1.67483e-06
2.62169e-06
-3.33425e-06
-6.69605e-06
1.8335e-06
3.06753e-06
4.34277e-06
5.67329e-06
6.94571e-06
8.08559e-06
9.06813e-06
9.90506e-06
1.06e-05
1.11736e-05
1.1628e-05
1.198e-05
1.22276e-05
1.23717e-05
1.24059e-05
1.22086e-05
1.17051e-05
1.00303e-05
6.69605e-06
)
;

boundaryField
{
    movingWall
    {
        type            calculated;
        value           uniform 0;
    }
    fixedWalls
    {
        type            calculated;
        value           uniform 0;
    }
    frontAndBack
    {
        type            empty;
        value           nonuniform 0();
    }
}


// ************************************************************************* //
