/*--------------------------------*- C++ -*----------------------------------*\
| =========                 |                                                 |
| \\      /  F ield         | OpenFOAM: The Open Source CFD Toolbox           |
|  \\    /   O peration     | Version:  5.0                                   |
|   \\  /    A nd           | Web:      www.OpenFOAM.org                      |
|    \\/     M anipulation  |                                                 |
\*---------------------------------------------------------------------------*/
FoamFile
{
    version     2.0;
    format      ascii;
    class       volVectorField;
    location    "7.5";
    object      U;
}
// * * * * * * * * * * * * * * * * * * * * * * * * * * * * * * * * * * * * * //

dimensions      [0 1 -1 0 0 0 0];

internalField   nonuniform List<vector> 
400
(
(0.00238238 -0.002901 0)
(0.00236921 -0.000594039 0)
(-0.00623717 0.00348468 0)
(-0.0263392 0.0104255 0)
(-0.059207 0.0140743 0)
(-0.0851652 0.0121251 0)
(-0.108598 0.0104773 0)
(-0.126337 0.0081215 0)
(-0.140476 0.00622613 0)
(-0.150157 0.00401029 0)
(-0.156004 0.0022484 0)
(-0.158318 0.000372798 0)
(-0.157188 -0.00264527 0)
(-0.150604 -0.00479186 0)
(-0.139754 -0.00806435 0)
(-0.122447 -0.0110488 0)
(-0.0993991 -0.0144357 0)
(-0.070008 -0.0164471 0)
(-0.0375071 -0.0149128 0)
(-0.00891101 -0.00413731 0)
(-0.00183177 -0.00244415 0)
(-0.0120403 0.0109333 0)
(-0.0376061 0.0294055 0)
(-0.0657841 0.0396301 0)
(-0.0901357 0.0387213 0)
(-0.109848 0.0347871 0)
(-0.126633 0.0293505 0)
(-0.138964 0.0236877 0)
(-0.149597 0.0171588 0)
(-0.156594 0.0114226 0)
(-0.160874 0.00575022 0)
(-0.161648 0.000188976 0)
(-0.159157 -0.00595771 0)
(-0.153168 -0.0127539 0)
(-0.143191 -0.0210509 0)
(-0.128345 -0.0304901 0)
(-0.108378 -0.04132 0)
(-0.082939 -0.0510627 0)
(-0.0517881 -0.0538652 0)
(-0.0189904 -0.0352461 0)
(-0.00782218 0.01276 0)
(-0.0309017 0.0384875 0)
(-0.0567383 0.0549738 0)
(-0.0787413 0.0598914 0)
(-0.0964229 0.0563151 0)
(-0.110703 0.0493145 0)
(-0.122155 0.0405607 0)
(-0.130841 0.0313459 0)
(-0.13685 0.0231129 0)
(-0.139809 0.0148627 0)
(-0.140937 0.00676057 0)
(-0.139912 -0.00150907 0)
(-0.137328 -0.0101692 0)
(-0.131861 -0.0197074 0)
(-0.123853 -0.0308316 0)
(-0.112349 -0.0439906 0)
(-0.0968886 -0.0594934 0)
(-0.0768723 -0.0764074 0)
(-0.0507029 -0.0888312 0)
(-0.0216871 -0.0775919 0)
(-0.0118989 0.0359061 0)
(-0.0365876 0.0618959 0)
(-0.0590097 0.0748969 0)
(-0.0758338 0.0762523 0)
(-0.0886827 0.0700829 0)
(-0.0985295 0.0605615 0)
(-0.105677 0.0493633 0)
(-0.110629 0.0379482 0)
(-0.11357 0.0270124 0)
(-0.115106 0.0165114 0)
(-0.115232 0.00654476 0)
(-0.113929 -0.00342386 0)
(-0.111143 -0.0138569 0)
(-0.106581 -0.0254434 0)
(-0.100224 -0.0388616 0)
(-0.0916397 -0.0548103 0)
(-0.0800974 -0.0736795 0)
(-0.0646513 -0.0948367 0)
(-0.0433579 -0.113876 0)
(-0.0196649 -0.111908 0)
(-0.0120756 0.0578832 0)
(-0.0345581 0.0825832 0)
(-0.0525312 0.0915231 0)
(-0.0655517 0.0893403 0)
(-0.0750263 0.0802308 0)
(-0.0817183 0.0680472 0)
(-0.0861897 0.0545882 0)
(-0.08913 0.041325 0)
(-0.0907857 0.0288233 0)
(-0.0913643 0.0170608 0)
(-0.0908615 0.00582905 0)
(-0.0892989 -0.00535927 0)
(-0.086642 -0.0170011 0)
(-0.0828256 -0.0298377 0)
(-0.0778321 -0.0447043 0)
(-0.0715164 -0.062553 0)
(-0.0633157 -0.0841977 0)
(-0.0518057 -0.109646 0)
(-0.0350162 -0.135063 0)
(-0.0173015 -0.140681 0)
(-0.0102175 0.0781368 0)
(-0.0286612 0.100373 0)
(-0.0426182 0.105335 0)
(-0.0526791 0.0995532 0)
(-0.0595932 0.0875028 0)
(-0.0642293 0.0729377 0)
(-0.0672121 0.0577391 0)
(-0.069122 0.0432093 0)
(-0.0700951 0.0296801 0)
(-0.070232 0.0169778 0)
(-0.0695644 0.00478718 0)
(-0.0680834 -0.0073345 0)
(-0.0657642 -0.019898 0)
(-0.0626045 -0.0335979 0)
(-0.0586485 -0.0493055 0)
(-0.0539113 -0.0681174 0)
(-0.048202 -0.0911894 0)
(-0.0400957 -0.119361 0)
(-0.0292995 -0.15066 0)
(-0.0117526 -0.164045 0)
(-0.00832644 0.0949351 0)
(-0.0215285 0.114466 0)
(-0.0320327 0.116134 0)
(-0.0394303 0.107222 0)
(-0.0443564 0.092741 0)
(-0.0476358 0.0763437 0)
(-0.0497565 0.0598921 0)
(-0.0511247 0.0444455 0)
(-0.0518268 0.0301388 0)
(-0.0519344 0.0167213 0)
(-0.0514425 0.00380734 0)
(-0.0502996 -0.00906846 0)
(-0.0484623 -0.0224073 0)
(-0.0459464 -0.0368132 0)
(-0.0428509 -0.0531121 0)
(-0.0392916 -0.0724937 0)
(-0.0353689 -0.0963443 0)
(-0.0296322 -0.126518 0)
(-0.0235262 -0.161837 0)
(-0.00943577 -0.183188 0)
(-0.00544732 0.107154 0)
(-0.0142627 0.124971 0)
(-0.0217255 0.124059 0)
(-0.0267272 0.112775 0)
(-0.0300763 0.096534 0)
(-0.0323702 0.0788421 0)
(-0.0339323 0.0615036 0)
(-0.0350183 0.0453921 0)
(-0.0356693 0.0305339 0)
(-0.0359154 0.0166046 0)
(-0.0357179 0.0031454 0)
(-0.0350067 -0.0103328 0)
(-0.0337298 -0.0243039 0)
(-0.0319071 -0.0392736 0)
(-0.0296687 -0.0559418 0)
(-0.0271824 -0.0755137 0)
(-0.0248273 -0.0996441 0)
(-0.0210846 -0.131041 0)
(-0.0189485 -0.169208 0)
(-0.00600905 -0.198357 0)
(-0.00331043 0.114783 0)
(-0.00753831 0.131436 0)
(-0.0120244 0.128951 0)
(-0.0148396 0.116381 0)
(-0.0168431 0.0990815 0)
(-0.0183221 0.0806187 0)
(-0.0194343 0.0627409 0)
(-0.0203141 0.046209 0)
(-0.0209525 0.0309966 0)
(-0.0213389 0.0167193 0)
(-0.0214247 0.00286713 0)
(-0.0211501 -0.0110627 0)
(-0.0204732 -0.0255164 0)
(-0.0194155 -0.0409136 0)
(-0.0181267 -0.0577993 0)
(-0.0167443 -0.07732 0)
(-0.0160825 -0.101405 0)
(-0.0137875 -0.133591 0)
(-0.0152675 -0.173794 0)
(-0.0042595 -0.210588 0)
(1.14361e-05 0.117718 0)
(-0.0012143 0.135049 0)
(-0.00298582 0.131553 0)
(-0.00371105 0.118287 0)
(-0.00445919 0.100551 0)
(-0.00513311 0.0817672 0)
(-0.00577903 0.0636562 0)
(-0.00641609 0.0469192 0)
(-0.00699109 0.0315168 0)
(-0.00746407 0.0170383 0)
(-0.00779381 0.00295191 0)
(-0.00794713 -0.0112504 0)
(-0.00790837 -0.0259921 0)
(-0.00769922 -0.0416232 0)
(-0.0074835 -0.0585445 0)
(-0.00725513 -0.0777826 0)
(-0.00856853 -0.101458 0)
(-0.00740935 -0.133953 0)
(-0.0123328 -0.175645 0)
(-0.00186863 -0.220076 0)
(0.00211843 0.116165 0)
(0.00450974 0.134735 0)
(0.00576617 0.131241 0)
(0.00693659 0.118323 0)
(0.00742749 0.100758 0)
(0.00762088 0.0821544 0)
(0.00752633 0.0641552 0)
(0.00721449 0.0474492 0)
(0.00677902 0.0320289 0)
(0.0062762 0.0175101 0)
(0.00573407 0.00337206 0)
(0.0051553 -0.0108888 0)
(0.00451815 -0.025681 0)
(0.00379934 -0.0413122 0)
(0.00280284 -0.0580551 0)
(0.0017625 -0.0767688 0)
(-0.00168355 -0.0999539 0)
(-0.0014993 -0.132185 0)
(-0.0101275 -0.175542 0)
(-0.000199791 -0.227369 0)
(0.00406396 0.111574 0)
(0.010127 0.131822 0)
(0.0137469 0.129184 0)
(0.0170325 0.117297 0)
(0.0190084 0.100109 0)
(0.0202322 0.0819287 0)
(0.020857 0.064249 0)
(0.0210076 0.0477541 0)
(0.0208111 0.0324861 0)
(0.0203403 0.0181055 0)
(0.0196113 0.00412444 0)
(0.0186035 -0.00994883 0)
(0.0172505 -0.0245166 0)
(0.015536 -0.0398702 0)
(0.013246 -0.0561893 0)
(0.0106063 -0.0741598 0)
(0.00503435 -0.0965274 0)
(0.00436423 -0.128162 0)
(-0.00841567 -0.17331 0)
(0.00236271 -0.232377 0)
(0.00618485 0.102342 0)
(0.0153318 0.125096 0)
(0.0217794 0.123779 0)
(0.026819 0.1138 0)
(0.0305191 0.0978184 0)
(0.0329485 0.0805529 0)
(0.0344796 0.0635811 0)
(0.0352682 0.0476127 0)
(0.0354463 0.0327601 0)
(0.0350953 0.0187627 0)
(0.0342192 0.00519665 0)
(0.0327874 -0.00840172 0)
(0.0306791 -0.022417 0)
(0.027903 -0.037159 0)
(0.0241212 -0.0527615 0)
(0.0198032 -0.0698923 0)
(0.0120907 -0.0910026 0)
(0.0101561 -0.12206 0)
(-0.00698723 -0.169357 0)
(0.00524745 -0.235453 0)
(0.00794654 0.0898754 0)
(0.019905 0.11682 0)
(0.0289234 0.117654 0)
(0.0359815 0.10916 0)
(0.0416765 0.0946265 0)
(0.0456901 0.0784075 0)
(0.0484451 0.0623018 0)
(0.0501383 0.0470563 0)
(0.0508944 0.0328411 0)
(0.0508006 0.019469 0)
(0.0498515 0.00659168 0)
(0.0480176 -0.00622515 0)
(0.0451106 -0.0193293 0)
(0.0412235 -0.0330729 0)
(0.0357746 -0.0476209 0)
(0.029723 -0.0636285 0)
(0.0196645 -0.0832948 0)
(0.0162432 -0.114051 0)
(-0.0052024 -0.163733 0)
(0.00946792 -0.236715 0)
(0.00953643 0.0737499 0)
(0.0239243 0.103685 0)
(0.0352186 0.107362 0)
(0.0445397 0.100935 0)
(0.0523781 0.0885929 0)
(0.0583531 0.074132 0)
(0.062682 0.0594604 0)
(0.0655741 0.0454313 0)
(0.0671482 0.0322995 0)
(0.067495 0.0199618 0)
(0.0665883 0.00816447 0)
(0.0644226 -0.0034918 0)
(0.060696 -0.0152493 0)
(0.0557031 -0.027553 0)
(0.0484515 -0.0406204 0)
(0.0406612 -0.0552407 0)
(0.0279269 -0.073378 0)
(0.0229928 -0.104126 0)
(-0.00295501 -0.156925 0)
(0.0145579 -0.236794 0)
(0.00947682 0.0557109 0)
(0.0256964 0.0909654 0)
(0.0390707 0.0972502 0)
(0.0509339 0.0922961 0)
(0.061477 0.0817177 0)
(0.0700293 0.0689684 0)
(0.0764917 0.0558425 0)
(0.0810323 0.0432217 0)
(0.0837681 0.0314227 0)
(0.0848325 0.0204025 0)
(0.0841312 0.0100034 0)
(0.0818255 -0.000147273 0)
(0.0773659 -0.0101706 0)
(0.0714208 -0.0206305 0)
(0.062347 -0.0317678 0)
(0.0529966 -0.0447167 0)
(0.0374047 -0.0610963 0)
(0.0311519 -0.0921912 0)
(0.00011841 -0.147962 0)
(0.0213174 -0.234811 0)
(0.00792593 0.0373327 0)
(0.024826 0.0714453 0)
(0.040471 0.080093 0)
(0.055215 0.0775963 0)
(0.0687454 0.0696464 0)
(0.0802641 0.0595409 0)
(0.0892817 0.0488375 0)
(0.0958421 0.0384312 0)
(0.100016 0.0287252 0)
(0.102076 0.019718 0)
(0.101771 0.0113419 0)
(0.0996553 0.0032549 0)
(0.0947217 -0.00462109 0)
(0.0883841 -0.0128001 0)
(0.0779384 -0.0214299 0)
(0.0677466 -0.0323158 0)
(0.0495428 -0.0464058 0)
(0.0425304 -0.0780732 0)
(0.00534287 -0.137038 0)
(0.0304752 -0.227495 0)
(-0.00300624 0.0243036 0)
(0.016 0.058527 0)
(0.0347321 0.0659437 0)
(0.0535271 0.0642115 0)
(0.0710003 0.0579893 0)
(0.0860503 0.050118 0)
(0.098145 0.0419094 0)
(0.107353 0.033819 0)
(0.113596 0.0262627 0)
(0.117392 0.0193439 0)
(0.118269 0.0130637 0)
(0.117303 0.00717818 0)
(0.11303 0.00167346 0)
(0.107903 -0.00408318 0)
(0.097714 -0.0100453 0)
(0.0885538 -0.0183825 0)
(0.0690072 -0.0300467 0)
(0.0621263 -0.0615319 0)
(0.0182809 -0.120976 0)
(0.0460194 -0.205185 0)
(-0.0147845 0.0300785 0)
(-0.002599 0.0280113 0)
(0.0237731 0.0328669 0)
(0.0486806 0.0343074 0)
(0.0710502 0.0323824 0)
(0.0904927 0.0285469 0)
(0.106693 0.0241715 0)
(0.119645 0.0199589 0)
(0.129253 0.0160857 0)
(0.136165 0.0125214 0)
(0.140012 0.00935238 0)
(0.141893 0.00624143 0)
(0.140649 0.0036115 0)
(0.138194 0.000149646 0)
(0.131194 -0.0027969 0)
(0.1252 -0.00885565 0)
(0.108733 -0.0179434 0)
(0.103183 -0.0454768 0)
(0.0576368 -0.0931031 0)
(0.0776964 -0.156554 0)
(0.0398548 0.038137 0)
(0.045932 0.0274254 0)
(0.0700214 0.0243059 0)
(0.0995072 0.0242445 0)
(0.125553 0.0233639 0)
(0.149347 0.0215133 0)
(0.170698 0.0190772 0)
(0.189324 0.0169472 0)
(0.204937 0.0146492 0)
(0.217978 0.0129626 0)
(0.22822 0.011001 0)
(0.236457 0.00975383 0)
(0.24214 0.00793813 0)
(0.246122 0.00693504 0)
(0.247555 0.00481767 0)
(0.245581 0.00241896 0)
(0.237255 0.00188527 0)
(0.222404 -0.00980326 0)
(0.172997 -0.0131192 0)
(0.145995 -0.0644854 0)
)
;

boundaryField
{
    movingWall
    {
        type            fixedValue;
        value           uniform (1 0 0);
    }
    fixedWalls
    {
        type            noSlip;
    }
    frontAndBack
    {
        type            empty;
    }
}


// ************************************************************************* //
