/*--------------------------------*- C++ -*----------------------------------*\
  =========                 |
  \\      /  F ield         | OpenFOAM: The Open Source CFD Toolbox
   \\    /   O peration     | Website:  https://openfoam.org
    \\  /    A nd           | Version:  6
     \\/     M anipulation  |
\*---------------------------------------------------------------------------*/
FoamFile
{
    version     2.0;
    format      ascii;
    class       volScalarField;
    location    "0.2";
    object      Co;
}
// * * * * * * * * * * * * * * * * * * * * * * * * * * * * * * * * * * * * * //

dimensions      [0 0 0 0 0 0 0];

internalField   nonuniform List<scalar> 
400
(
0.000284871
0.000728157
0.00228458
0.00490856
0.00791975
0.0109441
0.0136597
0.0158084
0.0171988
0.0177074
0.0177074
0.0172811
0.015943
0.0137977
0.0110364
0.00793687
0.00485386
0.00219398
0.000680984
0.000313446
0.000683386
0.00433413
0.0105177
0.0179073
0.0256482
0.03296
0.0391714
0.0437471
0.0463028
0.0466161
0.0465338
0.0464033
0.0439945
0.0394763
0.0332119
0.0257581
0.0178456
0.0103315
0.00413368
0.000615096
0.00224294
0.0107882
0.0221972
0.0345917
0.0466462
0.057288
0.0656656
0.0711492
0.0733344
0.0720515
0.0718164
0.0734039
0.0715047
0.0661885
0.0577985
0.0469675
0.0346224
0.0219646
0.010456
0.00204849
0.00514632
0.0194492
0.0366847
0.0542442
0.0703552
0.0837129
0.0933814
0.0987498
0.0995055
0.0956304
0.0951756
0.0995553
0.0993085
0.0942912
0.084697
0.0711084
0.0545478
0.036511
0.019009
0.00483424
0.0090172
0.0302412
0.0538826
0.07675
0.0967074
0.112295
0.122577
0.12705
0.125571
0.118339
0.117536
0.12561
0.127962
0.124149
0.114112
0.098275
0.0776622
0.0539966
0.0297896
0.00858864
0.0138146
0.0431727
0.073844
0.102174
0.125774
0.143136
0.153425
0.156328
0.151946
0.140731
0.139342
0.151928
0.157758
0.156018
0.146293
0.128731
0.104235
0.0746541
0.0429249
0.0133113
0.0195483
0.0583131
0.0966758
0.130604
0.157591
0.176215
0.185872
0.186546
0.178647
0.162922
0.160552
0.178417
0.188611
0.189877
0.181335
0.162701
0.134591
0.0988183
0.0586505
0.0190763
0.0262744
0.0757846
0.122494
0.162063
0.192026
0.21124
0.219501
0.21722
0.205201
0.184513
0.180588
0.20444
0.219916
0.225261
0.218995
0.200209
0.168984
0.126866
0.0772998
0.0260304
0.0340938
0.0957564
0.151388
0.196425
0.228666
0.247508
0.253375
0.247277
0.230508
0.204492
0.198257
0.228684
0.250381
0.261055
0.258488
0.24089
0.207471
0.159151
0.0992894
0.0343932
0.0431641
0.118454
0.183393
0.233334
0.266681
0.283737
0.285863
0.274881
0.252688
0.221089
0.211647
0.249013
0.277831
0.295266
0.298229
0.283761
0.249741
0.195917
0.125105
0.044467
0.0537332
0.144183
0.218446
0.272076
0.304628
0.317836
0.314404
0.297212
0.268878
0.231593
0.21802
0.262311
0.298985
0.324734
0.33552
0.326903
0.294862
0.237166
0.155284
0.0566642
0.06621
0.173372
0.2563
0.311365
0.340156
0.346594
0.335217
0.310221
0.275025
0.23218
0.21371
0.264338
0.309245
0.344833
0.366147
0.367025
0.340889
0.28242
0.190372
0.0715643
0.0812949
0.206594
0.296303
0.348919
0.369519
0.365222
0.342936
0.308361
0.265701
0.217758
0.194074
0.24966
0.302548
0.349178
0.38392
0.398858
0.384251
0.330283
0.230823
0.0900174
0.100199
0.244492
0.336846
0.380652
0.386755
0.366699
0.330178
0.284356
0.234006
0.181934
0.153518
0.211719
0.271372
0.329455
0.380219
0.414377
0.418784
0.377624
0.276683
0.113305
0.124932
0.287259
0.374037
0.399123
0.382392
0.34092
0.287128
0.22913
0.171696
0.117216
0.0856843
0.143144
0.20705
0.275535
0.343677
0.401886
0.434242
0.417981
0.326723
0.143289
0.15836
0.332774
0.398678
0.390739
0.341554
0.273783
0.201388
0.136482
0.0924427
0.0584367
0.0303693
0.0692639
0.111382
0.176165
0.26035
0.34519
0.414187
0.438557
0.376048
0.182127
0.202818
0.371074
0.389968
0.331298
0.259764
0.227848
0.224489
0.218947
0.207864
0.188451
0.167947
0.195217
0.21384
0.22629
0.235992
0.260574
0.333493
0.415045
0.410339
0.23017
0.253738
0.370176
0.31824
0.284141
0.304359
0.327433
0.347777
0.361773
0.367124
0.362166
0.351357
0.365765
0.36922
0.363042
0.349262
0.331539
0.315989
0.341917
0.393335
0.278724
0.270519
0.319256
0.3417
0.40067
0.457562
0.50457
0.540369
0.565241
0.579734
0.58416
0.581514
0.585025
0.57826
0.56081
0.531827
0.490595
0.438143
0.381895
0.34478
0.282494
0.270518
0.491593
0.627358
0.712146
0.76653
0.801921
0.82506
0.83986
0.848506
0.85213
0.85213
0.851152
0.845378
0.833904
0.814747
0.78404
0.734494
0.652666
0.514195
0.282494
)
;

boundaryField
{
    movingWall
    {
        type            zeroGradient;
    }
    fixedWalls
    {
        type            zeroGradient;
    }
    frontAndBack
    {
        type            empty;
    }
}


// ************************************************************************* //
