/*--------------------------------*- C++ -*----------------------------------*\
  =========                 |
  \\      /  F ield         | OpenFOAM: The Open Source CFD Toolbox
   \\    /   O peration     | Website:  https://openfoam.org
    \\  /    A nd           | Version:  6
     \\/     M anipulation  |
\*---------------------------------------------------------------------------*/
FoamFile
{
    version     2.0;
    format      ascii;
    class       volVectorField;
    location    "0.2";
    object      wallShearStress;
}
// * * * * * * * * * * * * * * * * * * * * * * * * * * * * * * * * * * * * * //

dimensions      [0 2 -2 0 0 0 0];

internalField   uniform (0 0 0);

boundaryField
{
    movingWall
    {
        type            calculated;
        value           nonuniform List<vector> 
20
(
(3.07073 -1.24292 0)
(2.34097 -0.850383 0)
(1.68671 -0.590535 0)
(1.25172 -0.357725 0)
(0.995905 -0.211786 0)
(0.834977 -0.129259 0)
(0.728305 -0.0805272 0)
(0.657984 -0.0494628 0)
(0.614094 -0.0278537 0)
(0.590984 -0.0110375 0)
(0.585963 0.00398061 0)
(0.59862 0.0196254 0)
(0.630776 0.0387151 0)
(0.687221 0.0656762 0)
(0.777296 0.108708 0)
(0.918721 0.185046 0)
(1.15292 0.329568 0)
(1.57604 0.575651 0)
(2.25606 0.863697 0)
(3.03748 1.28018 0)
)
;
    }
    fixedWalls
    {
        type            calculated;
        value           nonuniform List<vector> 
60
(
(-0.00162189 0.000823933 0)
(0.00131888 0.00145451 0)
(0.00526689 -0.00351427 0)
(0.00882732 -0.0131635 0)
(0.0120025 -0.0268217 0)
(0.0150036 -0.0441851 0)
(0.0180381 -0.0651937 0)
(0.0212943 -0.0899813 0)
(0.0249638 -0.118851 0)
(0.0293006 -0.152278 0)
(0.0347297 -0.190975 0)
(0.0420387 -0.236068 0)
(0.0527072 -0.289456 0)
(0.069402 -0.354503 0)
(0.0965346 -0.43724 0)
(0.140089 -0.549005 0)
(0.200423 -0.714656 0)
(0.222081 -0.989458 0)
(-0.111485 -1.45469 0)
(-1.88791 -2.27333 0)
(-0.00174603 -0.00082357 0)
(0.00104561 -0.00165081 0)
(0.00486021 0.00297483 0)
(0.00831513 0.0121678 0)
(0.0114483 0.025308 0)
(0.0145373 0.0422048 0)
(0.0178763 0.0630004 0)
(0.0217543 0.0881355 0)
(0.0264748 0.118331 0)
(0.0324103 0.154592 0)
(0.040102 0.198264 0)
(0.0504358 0.251169 0)
(0.0649306 0.315919 0)
(0.0861146 0.396471 0)
(0.117757 0.499064 0)
(0.163781 0.634491 0)
(0.21811 0.82554 0)
(0.209627 1.11582 0)
(-0.183948 1.53503 0)
(-1.95155 2.26717 0)
(-0.000872301 0.00158941 0)
(-0.00137478 -0.00155692 0)
(0.00393246 -0.00543838 0)
(0.0134386 -0.00820168 0)
(0.0253259 -0.00958495 0)
(0.0379551 -0.00969481 0)
(0.049899 -0.00873261 0)
(0.0599861 -0.00692447 0)
(0.0673152 -0.00449432 0)
(0.0712534 -0.00166229 0)
(0.071442 0.00134541 0)
(0.0678123 0.00428571 0)
(0.0606105 0.00689257 0)
(0.0504235 0.00887862 0)
(0.038196 0.00994827 0)
(0.0252207 0.00982754 0)
(0.0130809 0.00831708 0)
(0.00353702 0.0053774 0)
(-0.00159869 0.00139238 0)
(-0.000896455 -0.00170104 0)
)
;
    }
    frontAndBack
    {
        type            empty;
    }
}


// ************************************************************************* //
