# Wall shear stress
# Time        	patch         	min           	max           
0.000000e+00	movingWall	(4.000000e+00 0.000000e+00 0.000000e+00)	(4.000000e+00 0.000000e+00 0.000000e+00)
0.000000e+00	fixedWalls	(0.000000e+00 -2.000000e+00 0.000000e+00)	(0.000000e+00 2.000000e+00 0.000000e+00)
1.000000e-01	movingWall	(5.873155e-01 -1.242971e+00 0.000000e+00)	(3.070717e+00 1.280177e+00 0.000000e+00)
1.000000e-01	fixedWalls	(-1.951551e+00 -2.273346e+00 0.000000e+00)	(2.221235e-01 2.267184e+00 0.000000e+00)
2.000000e-01	movingWall	(5.859631e-01 -1.242920e+00 0.000000e+00)	(3.070734e+00 1.280175e+00 0.000000e+00)
2.000000e-01	fixedWalls	(-1.951546e+00 -2.273330e+00 0.000000e+00)	(2.220809e-01 2.267174e+00 0.000000e+00)
3.000000e-01	movingWall	(5.859469e-01 -1.242915e+00 0.000000e+00)	(3.070732e+00 1.280170e+00 0.000000e+00)
3.000000e-01	fixedWalls	(-1.951545e+00 -2.273326e+00 0.000000e+00)	(2.220797e-01 2.267170e+00 0.000000e+00)
4.000000e-01	movingWall	(5.859388e-01 -1.242915e+00 0.000000e+00)	(3.070732e+00 1.280170e+00 0.000000e+00)
4.000000e-01	fixedWalls	(-1.951545e+00 -2.273326e+00 0.000000e+00)	(2.220785e-01 2.267170e+00 0.000000e+00)
5.000000e-01	movingWall	(5.859348e-01 -1.242915e+00 0.000000e+00)	(3.070732e+00 1.280170e+00 0.000000e+00)
5.000000e-01	fixedWalls	(-1.951545e+00 -2.273326e+00 0.000000e+00)	(2.220785e-01 2.267170e+00 0.000000e+00)
