/*--------------------------------*- C++ -*----------------------------------*\
| =========                 |                                                 |
| \\      /  F ield         | OpenFOAM: The Open Source CFD Toolbox           |
|  \\    /   O peration     | Version:  5.0                                   |
|   \\  /    A nd           | Web:      www.OpenFOAM.org                      |
|    \\/     M anipulation  |                                                 |
\*---------------------------------------------------------------------------*/
FoamFile
{
    version     2.0;
    format      ascii;
    class       volScalarField;
    location    "9";
    object      p;
}
// * * * * * * * * * * * * * * * * * * * * * * * * * * * * * * * * * * * * * //

dimensions      [0 2 -2 0 0 0 0];

internalField   nonuniform List<scalar> 
400
(
3.45738e-08
-0.000110038
-0.000271188
-0.000161409
-0.000875233
-0.00263857
-0.00481372
-0.00681925
-0.00843554
-0.00953367
-0.0100866
-0.0100564
-0.00941143
-0.00795129
-0.00552576
-0.00208608
0.00221534
0.00675043
0.00993572
0.011301
1.37677e-05
-6.72578e-05
-0.000246823
-0.000865487
-0.00213786
-0.00400481
-0.00596535
-0.00784093
-0.00932707
-0.0103444
-0.0108517
-0.0108471
-0.0102931
-0.00907868
-0.00704193
-0.00410166
-0.000264684
0.00408572
0.00776146
0.00992717
0.000346662
-6.96965e-05
-0.000877363
-0.0022312
-0.00408193
-0.00605926
-0.00798574
-0.00971523
-0.0109762
-0.0117844
-0.012139
-0.0120533
-0.0115006
-0.0104647
-0.00886558
-0.00661787
-0.00360525
0.000144218
0.00384469
0.00637993
0.000246635
-0.000529071
-0.00203419
-0.00409072
-0.0063059
-0.00835035
-0.0100626
-0.0113575
-0.0122803
-0.0128432
-0.0130452
-0.0129041
-0.012428
-0.0115966
-0.0103607
-0.00868532
-0.00647384
-0.00354343
-0.000320022
0.00205708
-0.000626024
-0.00168405
-0.00371697
-0.00613546
-0.00837386
-0.0102016
-0.0116028
-0.0126225
-0.0133363
-0.0137562
-0.0138846
-0.0137314
-0.0133088
-0.0126234
-0.0116465
-0.0103498
-0.00875148
-0.0065727
-0.0041567
-0.00202522
-0.00227107
-0.00343996
-0.00562937
-0.00801655
-0.0100549
-0.0116048
-0.0127545
-0.0135984
-0.0141835
-0.0145184
-0.0146072
-0.0144611
-0.0140974
-0.0135322
-0.012758
-0.011727
-0.0105389
-0.00893564
-0.00722007
-0.00545068
-0.00423076
-0.00535764
-0.00741416
-0.00960054
-0.0113767
-0.0126744
-0.0136502
-0.0143704
-0.014859
-0.0151346
-0.0152064
-0.0150783
-0.0147678
-0.0142897
-0.0136721
-0.0128407
-0.0119426
-0.0107437
-0.00954898
-0.00811754
-0.00603255
-0.00704261
-0.00887401
-0.0108295
-0.0123619
-0.0134634
-0.0143182
-0.0149432
-0.0153542
-0.0155796
-0.015635
-0.0155244
-0.0152679
-0.0148669
-0.0143737
-0.0136867
-0.013009
-0.0120564
-0.0112175
-0.0100951
-0.0073636
-0.00827179
-0.00990839
-0.0116773
-0.0130301
-0.0140011
-0.0147653
-0.0153152
-0.0156664
-0.0158508
-0.0158922
-0.0157984
-0.0155911
-0.0152535
-0.0148615
-0.0142668
-0.013769
-0.0129066
-0.0123779
-0.0114771
-0.00813662
-0.00895765
-0.0104712
-0.0121328
-0.0133807
-0.0142831
-0.0149954
-0.015501
-0.015821
-0.0159816
-0.0160215
-0.0159373
-0.0157627
-0.0154597
-0.0151503
-0.0145801
-0.0142563
-0.0133223
-0.0131119
-0.0123178
-0.00831162
-0.00909617
-0.0105486
-0.0121842
-0.0134207
-0.0143251
-0.0150301
-0.0155265
-0.0158412
-0.0159929
-0.0160285
-0.0159494
-0.0157907
-0.0155035
-0.0152457
-0.0146498
-0.0144581
-0.0133303
-0.0134941
-0.0125804
-0.00789885
-0.00871096
-0.0101571
-0.0118467
-0.0131543
-0.0141264
-0.0148718
-0.0153978
-0.0157359
-0.0159009
-0.0159406
-0.0158655
-0.0157002
-0.0154246
-0.0151313
-0.0145385
-0.014279
-0.0129976
-0.0134065
-0.0122121
-0.00700551
-0.0078921
-0.00937102
-0.0111327
-0.0125817
-0.0136795
-0.0145159
-0.0151155
-0.0155106
-0.0157114
-0.0157642
-0.0156834
-0.0154988
-0.0152032
-0.0148251
-0.0142084
-0.0136971
-0.0123062
-0.012745
-0.0111624
-0.0059137
-0.00685087
-0.00831238
-0.01004
-0.0116724
-0.012949
-0.0139311
-0.0146509
-0.0151382
-0.0153978
-0.0154743
-0.0153903
-0.0151742
-0.0148205
-0.0143195
-0.0135831
-0.0126971
-0.0111926
-0.0114741
-0.00945933
-0.00489244
-0.00577864
-0.00709245
-0.00864997
-0.0103573
-0.011854
-0.0130623
-0.0139677
-0.014592
-0.0149439
-0.0150652
-0.0149795
-0.0147083
-0.01424
-0.0135461
-0.0125578
-0.0112757
-0.00961719
-0.00965267
-0.00716686
-0.00443994
-0.00492221
-0.00575961
-0.00698874
-0.00862575
-0.0103269
-0.0118206
-0.0129928
-0.0138307
-0.014327
-0.0145105
-0.0144094
-0.0140426
-0.0134017
-0.012449
-0.0111288
-0.00948057
-0.00763072
-0.00734854
-0.00433528
-0.00449116
-0.004402
-0.00438004
-0.00510197
-0.00656398
-0.00837698
-0.0101543
-0.0116303
-0.0127301
-0.013428
-0.0137284
-0.0136431
-0.0131773
-0.0123307
-0.0110838
-0.00941305
-0.00740534
-0.00536557
-0.00464042
-0.000850509
-0.00439121
-0.00373024
-0.00291236
-0.00312503
-0.00438692
-0.00624087
-0.00821402
-0.0099372
-0.0112903
-0.0122003
-0.0126422
-0.0126016
-0.0120919
-0.0111006
-0.00962763
-0.00766666
-0.00536624
-0.00295237
-0.00115803
0.0047077
-0.00374921
-0.00278793
-0.0015814
-0.00153356
-0.00264123
-0.00449747
-0.00659061
-0.00853791
-0.0101057
-0.0112088
-0.0117886
-0.0118334
-0.011324
-0.0102653
-0.0086569
-0.00647399
-0.00369924
-0.000186236
0.00527149
0.0178553
-0.00512903
-0.0018909
-0.000482934
-0.000529807
-0.00154517
-0.00336608
-0.00553338
-0.00766674
-0.0094151
-0.010664
-0.0113524
-0.0114813
-0.0110398
-0.0100341
-0.00843047
-0.00607228
-0.00204605
0.00541465
0.019705
0.0424587
)
;

boundaryField
{
    movingWall
    {
        type            zeroGradient;
    }
    fixedWalls
    {
        type            zeroGradient;
    }
    frontAndBack
    {
        type            empty;
    }
}


// ************************************************************************* //
