/*--------------------------------*- C++ -*----------------------------------*\
| =========                 |                                                 |
| \\      /  F ield         | OpenFOAM: The Open Source CFD Toolbox           |
|  \\    /   O peration     | Version:  5.0                                   |
|   \\  /    A nd           | Web:      www.OpenFOAM.org                      |
|    \\/     M anipulation  |                                                 |
\*---------------------------------------------------------------------------*/
FoamFile
{
    version     2.0;
    format      ascii;
    class       surfaceScalarField;
    location    "9";
    object      phi;
}
// * * * * * * * * * * * * * * * * * * * * * * * * * * * * * * * * * * * * * //

dimensions      [0 3 -1 0 0 0 0];

internalField   nonuniform List<scalar> 
760
(
3.02977e-07
-3.0298e-07
1.81203e-07
1.21774e-07
-5.34762e-07
7.15965e-07
-2.07022e-06
1.53546e-06
-3.88012e-06
1.8099e-06
-5.40149e-06
1.52136e-06
-6.68757e-06
1.28608e-06
-7.6087e-06
9.21138e-07
-8.32975e-06
7.21044e-07
-8.79109e-06
4.61345e-07
-9.09437e-06
3.03278e-07
-9.17493e-06
8.05556e-08
-9.10387e-06
-7.10578e-08
-8.80541e-06
-2.98462e-07
-8.29735e-06
-5.08061e-07
-7.39467e-06
-9.02681e-07
-6.03389e-06
-1.36078e-06
-4.03832e-06
-1.99556e-06
-1.65932e-06
-2.379e-06
-1.65932e-06
-2.78035e-07
-2.49451e-08
-1.27268e-06
1.11642e-06
-2.99865e-06
2.44194e-06
-4.68185e-06
3.21866e-06
-5.86202e-06
2.99008e-06
-6.92701e-06
2.58634e-06
-7.69673e-06
2.0558e-06
-8.36094e-06
1.58535e-06
-8.79394e-06
1.15405e-06
-9.07219e-06
7.39592e-07
-9.1574e-06
3.88485e-07
-9.08014e-06
3.3013e-09
-8.88499e-06
-2.66211e-07
-8.57184e-06
-6.11609e-07
-8.04992e-06
-1.02998e-06
-7.327e-06
-1.62561e-06
-6.21178e-06
-2.476e-06
-4.59178e-06
-3.61556e-06
-2.35822e-06
-4.61257e-06
-4.01754e-06
-1.05772e-06
1.03277e-06
-2.64791e-06
2.70661e-06
-4.15509e-06
3.94912e-06
-5.24312e-06
4.30669e-06
-6.05734e-06
3.8043e-06
-6.67424e-06
3.20324e-06
-7.02689e-06
2.40845e-06
-7.22408e-06
1.78254e-06
-7.20439e-06
1.13435e-06
-7.15153e-06
6.86737e-07
-7.03137e-06
2.68321e-07
-6.95292e-06
-7.51393e-08
-6.73628e-06
-4.82852e-07
-6.46883e-06
-8.79067e-07
-6.06895e-06
-1.42986e-06
-5.56854e-06
-2.12601e-06
-4.91078e-06
-3.13375e-06
-3.90824e-06
-4.6181e-06
-2.30961e-06
-6.2112e-06
-6.32715e-06
-1.3957e-06
2.42847e-06
-2.95479e-06
4.2657e-06
-4.14542e-06
5.13975e-06
-4.86672e-06
5.02799e-06
-5.28794e-06
4.22552e-06
-5.42544e-06
3.34074e-06
-5.41137e-06
2.39439e-06
-5.37264e-06
1.74381e-06
-5.35555e-06
1.11726e-06
-5.33409e-06
6.65277e-07
-5.24823e-06
1.82463e-07
-5.11699e-06
-2.0638e-07
-4.94575e-06
-6.54095e-07
-4.72582e-06
-1.099e-06
-4.41806e-06
-1.73762e-06
-4.0116e-06
-2.53247e-06
-3.52264e-06
-3.62271e-06
-2.86834e-06
-5.27241e-06
-1.787e-06
-7.29254e-06
-8.11415e-06
-1.41938e-06
3.84785e-06
-2.68185e-06
5.52817e-06
-3.50356e-06
5.96147e-06
-3.94614e-06
5.47056e-06
-4.09246e-06
4.37183e-06
-4.10185e-06
3.35014e-06
-4.12521e-06
2.41775e-06
-4.14734e-06
1.76594e-06
-4.14787e-06
1.11779e-06
-4.11948e-06
6.36885e-07
-4.0451e-06
1.08089e-07
-3.92276e-06
-3.28721e-07
-3.73969e-06
-8.37171e-07
-3.5138e-06
-1.32489e-06
-3.27589e-06
-1.97553e-06
-2.95589e-06
-2.85247e-06
-2.58245e-06
-3.99615e-06
-2.19346e-06
-5.66139e-06
-1.40156e-06
-8.08444e-06
-9.51571e-06
-1.15851e-06
5.00636e-06
-2.0775e-06
6.44715e-06
-2.67916e-06
6.56313e-06
-2.96742e-06
5.75882e-06
-3.05518e-06
4.45959e-06
-3.0823e-06
3.37726e-06
-3.14912e-06
2.48457e-06
-3.18984e-06
1.80666e-06
-3.20475e-06
1.13269e-06
-3.18208e-06
6.14223e-07
-3.11581e-06
4.18192e-08
-3.01083e-06
-4.33706e-07
-2.85951e-06
-9.88491e-07
-2.63667e-06
-1.54773e-06
-2.39298e-06
-2.21922e-06
-2.11983e-06
-3.12561e-06
-1.78505e-06
-4.33094e-06
-1.45503e-06
-5.99141e-06
-1.06579e-06
-8.47369e-06
-1.05815e-05
-8.37503e-07
5.84386e-06
-1.48717e-06
7.09681e-06
-1.91891e-06
6.99488e-06
-2.10218e-06
5.94209e-06
-2.1841e-06
4.54151e-06
-2.24831e-06
3.44147e-06
-2.31628e-06
2.55254e-06
-2.34535e-06
1.83573e-06
-2.35196e-06
1.1393e-06
-2.32138e-06
5.83649e-07
-2.2858e-06
6.23724e-09
-2.2093e-06
-5.10203e-07
-2.11627e-06
-1.08152e-06
-1.97368e-06
-1.69032e-06
-1.79559e-06
-2.39731e-06
-1.57826e-06
-3.34294e-06
-1.31251e-06
-4.59669e-06
-1.04947e-06
-6.25445e-06
-7.90329e-07
-8.73283e-06
-1.13718e-05
-4.98369e-07
6.34223e-06
-9.26374e-07
7.52482e-06
-1.21754e-06
7.28605e-06
-1.3563e-06
6.08085e-06
-1.43988e-06
4.6251e-06
-1.50257e-06
3.50416e-06
-1.55061e-06
2.60058e-06
-1.55797e-06
1.84309e-06
-1.55164e-06
1.13297e-06
-1.52245e-06
5.54454e-07
-1.50283e-06
-1.33733e-08
-1.45588e-06
-5.57158e-07
-1.40439e-06
-1.13301e-06
-1.33154e-06
-1.76317e-06
-1.22885e-06
-2.5e-06
-1.08568e-06
-3.4861e-06
-8.67344e-07
-4.81503e-06
-6.71264e-07
-6.45053e-06
-5.84143e-07
-8.81995e-06
-1.1956e-05
-2.26454e-07
6.56869e-06
-4.58338e-07
7.7567e-06
-6.25171e-07
7.45288e-06
-7.3415e-07
6.18982e-06
-7.96365e-07
4.68731e-06
-8.42179e-07
3.54998e-06
-8.74337e-07
2.63274e-06
-8.78123e-07
1.84687e-06
-8.74876e-07
1.12972e-06
-8.54995e-07
5.34573e-07
-8.48007e-07
-2.03605e-08
-8.42256e-07
-5.6291e-07
-8.39031e-07
-1.13624e-06
-8.29386e-07
-1.77281e-06
-7.98807e-07
-2.53058e-06
-7.26714e-07
-3.5582e-06
-6.1071e-07
-4.93103e-06
-4.87481e-07
-6.57376e-06
-4.20233e-07
-8.8872e-06
-1.23762e-05
5.56711e-08
6.51302e-06
-2.20186e-08
7.83439e-06
-7.84569e-08
7.50932e-06
-1.27308e-07
6.23868e-06
-1.8916e-07
4.74916e-06
-2.44883e-07
3.6057e-06
-2.75985e-07
2.66384e-06
-2.81309e-07
1.8522e-06
-2.81827e-07
1.13024e-06
-2.74285e-07
5.27031e-07
-2.81058e-07
-1.35878e-08
-3.02382e-07
-5.41585e-07
-3.21215e-07
-1.11741e-06
-3.6071e-07
-1.73332e-06
-3.72768e-07
-2.51852e-06
-3.66905e-07
-3.56406e-06
-2.91817e-07
-5.00612e-06
-2.47398e-07
-6.61818e-06
-3.21277e-07
-8.81332e-06
-1.26975e-05
3.1725e-07
6.19577e-06
4.38285e-07
7.71336e-06
4.83667e-07
7.46394e-06
4.11919e-07
6.31042e-06
3.48396e-07
4.81269e-06
3.05368e-07
3.64872e-06
2.80417e-07
2.68879e-06
2.63188e-07
1.86943e-06
2.44244e-07
1.14918e-06
2.26273e-07
5.45002e-07
2.07595e-07
5.0905e-09
1.69588e-07
-5.03578e-07
1.2139e-07
-1.06921e-06
1.63949e-08
-1.62832e-06
1.23367e-08
-2.51446e-06
-9.60905e-08
-3.45563e-06
-2.91932e-08
-5.07302e-06
-1.28924e-07
-6.51845e-06
-2.26572e-07
-8.71567e-06
-1.2924e-05
5.58541e-07
5.63723e-06
8.91863e-07
7.38003e-06
1.0637e-06
7.2921e-06
9.99633e-07
6.37449e-06
9.23301e-07
4.88902e-06
8.67696e-07
3.70433e-06
8.25197e-07
2.73129e-06
7.8938e-07
1.90524e-06
7.50945e-07
1.18762e-06
7.1363e-07
5.82317e-07
6.76997e-07
4.17237e-08
6.26988e-07
-4.53569e-07
5.39064e-07
-9.81284e-07
4.65965e-07
-1.55522e-06
3.66744e-07
-2.41524e-06
2.88892e-07
-3.37778e-06
2.28356e-07
-5.01248e-06
1.24337e-08
-6.30252e-06
-1.57835e-07
-8.5454e-06
-1.30819e-05
8.48828e-07
4.7884e-06
1.30803e-06
6.92083e-06
1.60075e-06
6.99938e-06
1.62692e-06
6.34832e-06
1.53463e-06
4.98131e-06
1.47845e-06
3.76051e-06
1.43744e-06
2.7723e-06
1.39181e-06
1.95086e-06
1.33532e-06
1.24412e-06
1.27594e-06
6.4169e-07
1.19794e-06
1.19732e-07
1.11587e-06
-3.71502e-07
1.00054e-06
-8.65951e-07
9.0771e-07
-1.4624e-06
7.57739e-07
-2.26527e-06
6.68384e-07
-3.28842e-06
4.71794e-07
-4.81589e-06
1.84532e-07
-6.01526e-06
-7.13991e-09
-8.35373e-06
-1.3089e-05
1.08991e-06
3.69848e-06
1.77259e-06
6.23815e-06
2.17401e-06
6.59796e-06
2.33094e-06
6.19139e-06
2.25618e-06
5.05607e-06
2.19379e-06
3.82291e-06
2.14855e-06
2.81754e-06
2.09746e-06
2.00196e-06
2.0267e-06
1.31488e-06
1.94026e-06
7.28128e-07
1.8355e-06
2.245e-07
1.7202e-06
-2.56203e-07
1.59027e-06
-7.36027e-07
1.47359e-06
-1.34571e-06
1.31948e-06
-2.11116e-06
1.18881e-06
-3.15775e-06
8.74624e-07
-4.50171e-06
4.79566e-07
-5.6202e-06
1.20193e-07
-7.99436e-06
-1.29688e-05
1.33199e-06
2.36649e-06
2.10271e-06
5.46743e-06
2.63355e-06
6.06712e-06
3.00081e-06
5.82414e-06
3.10055e-06
4.95632e-06
3.08182e-06
3.84164e-06
3.02851e-06
2.87085e-06
2.97285e-06
2.05761e-06
2.89093e-06
1.3968e-06
2.78832e-06
8.30745e-07
2.66375e-06
3.49068e-07
2.53092e-06
-1.23378e-07
2.38369e-06
-5.8879e-07
2.23582e-06
-1.19784e-06
2.05485e-06
-1.9302e-06
1.81873e-06
-2.92163e-06
1.33782e-06
-4.0208e-06
7.45671e-07
-5.02805e-06
2.90054e-07
-7.53874e-06
-1.26788e-05
1.37075e-06
9.95749e-07
2.29715e-06
4.54103e-06
2.98997e-06
5.3743e-06
3.6031e-06
5.211e-06
3.95335e-06
4.60607e-06
4.09368e-06
3.70131e-06
4.13342e-06
2.83111e-06
4.12427e-06
2.06677e-06
4.07425e-06
1.44681e-06
3.985e-06
9.1999e-07
3.86143e-06
4.72638e-07
3.72684e-06
1.12202e-08
3.55086e-06
-4.12815e-07
3.34792e-06
-9.94904e-07
3.05822e-06
-1.6405e-06
2.62511e-06
-2.48851e-06
1.96758e-06
-3.36327e-06
1.16328e-06
-4.22375e-06
5.42066e-07
-6.91752e-06
-1.21367e-05
7.90075e-07
2.05674e-07
1.98185e-06
3.34925e-06
3.06063e-06
4.29552e-06
3.96257e-06
4.30906e-06
4.64177e-06
3.92687e-06
5.07926e-06
3.26383e-06
5.33447e-06
2.57589e-06
5.46371e-06
1.93753e-06
5.50064e-06
1.40989e-06
5.49051e-06
9.30114e-07
5.41253e-06
5.5062e-07
5.25337e-06
1.70383e-07
5.03381e-06
-1.93256e-07
4.71468e-06
-6.75776e-07
4.2359e-06
-1.16172e-06
3.5519e-06
-1.80452e-06
2.59746e-06
-2.40883e-06
1.54981e-06
-3.1761e-06
8.6938e-07
-6.23709e-06
-1.12673e-05
-1.63651e-07
3.69325e-07
1.26494e-06
1.92066e-06
2.61016e-06
2.95029e-06
3.85648e-06
3.06275e-06
4.88786e-06
2.89548e-06
5.68032e-06
2.47137e-06
6.23379e-06
2.02242e-06
6.6251e-06
1.54622e-06
6.82956e-06
1.20543e-06
6.92581e-06
8.33865e-07
6.87734e-06
5.99088e-07
6.76137e-06
2.86351e-07
6.46764e-06
1.00473e-07
6.03866e-06
-2.46792e-07
5.36258e-06
-4.85644e-07
4.49226e-06
-9.342e-07
3.25131e-06
-1.16787e-06
2.19907e-06
-2.12387e-06
1.42708e-06
-5.4651e-06
-9.84025e-06
-1.20625e-06
1.57558e-06
-1.75173e-07
8.89583e-07
1.45259e-06
1.32254e-06
3.02202e-06
1.49331e-06
4.39693e-06
1.52058e-06
5.51183e-06
1.35647e-06
6.34982e-06
1.18442e-06
6.95079e-06
9.45254e-07
7.35555e-06
8.00669e-07
7.5677e-06
6.21718e-07
7.63798e-06
5.28802e-07
7.53545e-06
3.88884e-07
7.31012e-06
3.25801e-07
6.88081e-06
1.82524e-07
6.29012e-06
1.05038e-07
5.4528e-06
-9.68788e-08
4.57736e-06
-2.92431e-07
3.86832e-06
-1.41483e-06
2.63315e-06
-4.22993e-06
-7.2071e-06
1.57558e-06
2.46516e-06
3.7877e-06
5.28101e-06
6.80159e-06
8.15805e-06
9.34248e-06
1.02877e-05
1.10884e-05
1.17101e-05
1.22389e-05
1.26278e-05
1.29536e-05
1.31361e-05
1.32412e-05
1.31443e-05
1.28519e-05
1.1437e-05
7.2071e-06
)
;

boundaryField
{
    movingWall
    {
        type            calculated;
        value           uniform 0;
    }
    fixedWalls
    {
        type            calculated;
        value           uniform 0;
    }
    frontAndBack
    {
        type            empty;
        value           nonuniform 0();
    }
}


// ************************************************************************* //
