/*--------------------------------*- C++ -*----------------------------------*\
| =========                 |                                                 |
| \\      /  F ield         | OpenFOAM: The Open Source CFD Toolbox           |
|  \\    /   O peration     | Version:  5.0                                   |
|   \\  /    A nd           | Web:      www.OpenFOAM.org                      |
|    \\/     M anipulation  |                                                 |
\*---------------------------------------------------------------------------*/
FoamFile
{
    version     2.0;
    format      ascii;
    class       volVectorField;
    location    "9";
    object      U;
}
// * * * * * * * * * * * * * * * * * * * * * * * * * * * * * * * * * * * * * //

dimensions      [0 1 -1 0 0 0 0];

internalField   nonuniform List<vector> 
400
(
(0.00270429 -0.00436529 0)
(0.00889895 -0.00217342 0)
(-0.0026775 0.00174556 0)
(-0.0154347 0.00978552 0)
(-0.0647121 0.0204363 0)
(-0.096795 0.0149035 0)
(-0.126171 0.0148 0)
(-0.145555 0.0112335 0)
(-0.161993 0.00993516 0)
(-0.172246 0.00717206 0)
(-0.180143 0.00588744 0)
(-0.183694 0.00366151 0)
(-0.184951 0.00225322 0)
(-0.181622 -0.00138495 0)
(-0.172334 -0.00362312 0)
(-0.156249 -0.00936806 0)
(-0.13161 -0.0142223 0)
(-0.0974823 -0.0206283 0)
(-0.0586318 -0.0195142 0)
(-0.0112922 -0.00502018 0)
(-0.000753685 -0.00903135 0)
(-0.0101248 0.00747744 0)
(-0.0381213 0.0298056 0)
(-0.0788024 0.0507842 0)
(-0.110202 0.0477012 0)
(-0.131064 0.0416869 0)
(-0.149067 0.0343139 0)
(-0.162713 0.0240664 0)
(-0.1733 0.0176699 0)
(-0.179668 0.0101039 0)
(-0.183601 0.00515929 0)
(-0.184034 -0.0011231 0)
(-0.182075 -0.00592276 0)
(-0.177082 -0.0127739 0)
(-0.168252 -0.0201065 0)
(-0.153902 -0.0317843 0)
(-0.133212 -0.0465093 0)
(-0.104494 -0.0661369 0)
(-0.0712222 -0.0797839 0)
(-0.0179518 -0.0565521 0)
(-0.00859355 0.00864212 0)
(-0.0342901 0.040012 0)
(-0.0691876 0.0658747 0)
(-0.0984256 0.0751793 0)
(-0.116725 0.067453 0)
(-0.129002 0.0574904 0)
(-0.140063 0.0433174 0)
(-0.144271 0.0342006 0)
(-0.144417 0.0238884 0)
(-0.144104 0.0158451 0)
(-0.141925 0.00783085 0)
(-0.140204 0.000872783 0)
(-0.137976 -0.00647846 0)
(-0.133405 -0.0140852 0)
(-0.12751 -0.0245281 0)
(-0.118245 -0.0385055 0)
(-0.10447 -0.060154 0)
(-0.0840058 -0.0882856 0)
(-0.0635916 -0.115743 0)
(-0.0212411 -0.11398 0)
(-0.0116823 0.0351258 0)
(-0.0450637 0.0713408 0)
(-0.075742 0.0921177 0)
(-0.0949357 0.0926488 0)
(-0.104635 0.0795531 0)
(-0.109929 0.065014 0)
(-0.108786 0.0488031 0)
(-0.106343 0.0353394 0)
(-0.108038 0.0226667 0)
(-0.106539 0.0132529 0)
(-0.106473 0.00413698 0)
(-0.103771 -0.00317474 0)
(-0.101339 -0.0114149 0)
(-0.0973446 -0.0196151 0)
(-0.0921799 -0.0310625 0)
(-0.0866801 -0.0453656 0)
(-0.0771732 -0.067384 0)
(-0.059001 -0.101656 0)
(-0.048731 -0.139114 0)
(-0.0162867 -0.148307 0)
(-0.0122474 0.0618997 0)
(-0.0457822 0.0973833 0)
(-0.0663034 0.109243 0)
(-0.0793529 0.103368 0)
(-0.0821969 0.0856706 0)
(-0.0821457 0.0679893 0)
(-0.0805068 0.0489916 0)
(-0.0825168 0.0357551 0)
(-0.0826714 0.0225942 0)
(-0.0832154 0.0130047 0)
(-0.0818315 0.00275563 0)
(-0.0802353 -0.00562376 0)
(-0.0763885 -0.0154827 0)
(-0.0734041 -0.0249216 0)
(-0.0671047 -0.0379277 0)
(-0.0628977 -0.0539628 0)
(-0.0590106 -0.0753798 0)
(-0.0406525 -0.109384 0)
(-0.0430068 -0.157644 0)
(-0.00650183 -0.181243 0)
(-0.0104801 0.0869523 0)
(-0.0373963 0.118494 0)
(-0.0508634 0.12428 0)
(-0.0611404 0.112328 0)
(-0.060009 0.0898635 0)
(-0.0603242 0.068195 0)
(-0.0609658 0.049828 0)
(-0.0636516 0.036291 0)
(-0.0632985 0.0228004 0)
(-0.064755 0.0125364 0)
(-0.0626853 0.00145827 0)
(-0.0621549 -0.00783444 0)
(-0.0579204 -0.0186077 0)
(-0.0559723 -0.0289044 0)
(-0.0503302 -0.0419525 0)
(-0.0434296 -0.0596769 0)
(-0.0443866 -0.0822418 0)
(-0.0241072 -0.114561 0)
(-0.0333424 -0.164944 0)
(-0.00348701 -0.201293 0)
(-0.00804093 0.107737 0)
(-0.0270447 0.134042 0)
(-0.0370086 0.134389 0)
(-0.0440123 0.116147 0)
(-0.0414891 0.0893642 0)
(-0.0435805 0.0683604 0)
(-0.0449074 0.0505106 0)
(-0.046888 0.0364514 0)
(-0.0461931 0.0225767 0)
(-0.0475612 0.0116407 0)
(-0.0456637 3.10268e-05 0)
(-0.0458286 -0.01017 0)
(-0.0425083 -0.0218091 0)
(-0.0411155 -0.0337392 0)
(-0.0390599 -0.0472587 0)
(-0.0306588 -0.0656562 0)
(-0.034971 -0.0895998 0)
(-0.0149598 -0.123171 0)
(-0.0289971 -0.172677 0)
(0.00222131 -0.220675 0)
(-0.0044177 0.12146 0)
(-0.0167501 0.145745 0)
(-0.0237074 0.142626 0)
(-0.0284614 0.120539 0)
(-0.0261557 0.0932215 0)
(-0.0293466 0.0704252 0)
(-0.0301476 0.0522045 0)
(-0.0312702 0.0373366 0)
(-0.0302858 0.0232553 0)
(-0.0313466 0.0118564 0)
(-0.0298365 0.000221939 0)
(-0.0301546 -0.0101234 0)
(-0.0284097 -0.0215615 0)
(-0.026665 -0.0342363 0)
(-0.027966 -0.0487512 0)
(-0.0190905 -0.068209 0)
(-0.0266655 -0.0932213 0)
(-0.00560015 -0.125703 0)
(-0.0233094 -0.174419 0)
(0.00373982 -0.232117 0)
(-0.00152445 0.130187 0)
(-0.00838297 0.152942 0)
(-0.0122051 0.147163 0)
(-0.0153242 0.122537 0)
(-0.0134599 0.0921076 0)
(-0.0168432 0.0699913 0)
(-0.0168148 0.0522464 0)
(-0.0176839 0.0369879 0)
(-0.016809 0.022719 0)
(-0.017689 0.0108804 0)
(-0.0166442 -0.000646636 0)
(-0.0169958 -0.0115676 0)
(-0.0172053 -0.0230912 0)
(-0.0153191 -0.0358019 0)
(-0.0192716 -0.0508119 0)
(-0.010591 -0.0710505 0)
(-0.02096 -0.098422 0)
(-0.000662956 -0.131319 0)
(-0.0211961 -0.177389 0)
(0.00742048 -0.244348 0)
(0.00216795 0.131881 0)
(-0.00027711 0.157225 0)
(-0.00108958 0.150555 0)
(-0.00297512 0.124887 0)
(-0.00172158 0.0959834 0)
(-0.00510722 0.0727685 0)
(-0.0049125 0.0538444 0)
(-0.00580804 0.0376368 0)
(-0.0051034 0.0230394 0)
(-0.00575548 0.0109035 0)
(-0.00537704 -0.000116734 0)
(-0.0055073 -0.0107249 0)
(-0.00703275 -0.0221417 0)
(-0.00497756 -0.0344872 0)
(-0.0107411 -0.0501851 0)
(-0.00227724 -0.0703227 0)
(-0.0148526 -0.0993934 0)
(0.0059225 -0.130395 0)
(-0.0182654 -0.177162 0)
(0.00821923 -0.250941 0)
(0.00541767 0.128903 0)
(0.00663755 0.157185 0)
(0.00894464 0.150617 0)
(0.0081433 0.125491 0)
(0.00899965 0.0943597 0)
(0.0058447 0.0714397 0)
(0.00627165 0.0528257 0)
(0.00531264 0.0367017 0)
(0.00550231 0.022457 0)
(0.0047155 0.0104944 0)
(0.00423329 -0.000339301 0)
(0.0044095 -0.0104538 0)
(0.00196919 -0.0219582 0)
(0.00350039 -0.0338832 0)
(-0.00318926 -0.0508282 0)
(0.00410093 -0.070553 0)
(-0.0095451 -0.10266 0)
(0.00952654 -0.132276 0)
(-0.017134 -0.177173 0)
(0.0110041 -0.257785 0)
(0.00703228 0.120269 0)
(0.0141114 0.153534 0)
(0.0192486 0.149594 0)
(0.0200313 0.127388 0)
(0.0206436 0.0982481 0)
(0.0175634 0.0741542 0)
(0.0174703 0.0546325 0)
(0.0161869 0.0381473 0)
(0.0158297 0.0237421 0)
(0.0149532 0.0115181 0)
(0.0136463 0.000562714 0)
(0.013717 -0.00949919 0)
(0.0108741 -0.020376 0)
(0.0116295 -0.0315467 0)
(0.00545853 -0.0487877 0)
(0.0113037 -0.0684205 0)
(-0.00248201 -0.10073 0)
(0.0150882 -0.127882 0)
(-0.0162232 -0.174074 0)
(0.0128513 -0.260731 0)
(0.010859 0.109279 0)
(0.021024 0.145613 0)
(0.0288036 0.144155 0)
(0.0314484 0.127576 0)
(0.0327536 0.096126 0)
(0.0300474 0.0728481 0)
(0.0297574 0.0536534 0)
(0.0285908 0.0373207 0)
(0.0276106 0.0232088 0)
(0.026758 0.0113744 0)
(0.0243863 0.00097749 0)
(0.0239199 -0.00877296 0)
(0.0202897 -0.0188424 0)
(0.0203543 -0.0306806 0)
(0.0144223 -0.0475643 0)
(0.0180736 -0.0682748 0)
(0.00514545 -0.0998218 0)
(0.0186903 -0.125785 0)
(-0.0150375 -0.169484 0)
(0.0165369 -0.26199 0)
(0.0125451 0.086447 0)
(0.0282452 0.135289 0)
(0.0400843 0.137772 0)
(0.0438516 0.127849 0)
(0.0466823 0.101301 0)
(0.0447168 0.0755645 0)
(0.0439079 0.0558557 0)
(0.0430102 0.0398337 0)
(0.041468 0.0260227 0)
(0.040732 0.0141553 0)
(0.037324 0.0038296 0)
(0.0364093 -0.00602797 0)
(0.031907 -0.0160383 0)
(0.0316387 -0.0284377 0)
(0.0260168 -0.0443788 0)
(0.0282174 -0.065349 0)
(0.0161573 -0.0927585 0)
(0.0251366 -0.116278 0)
(-0.0120986 -0.163384 0)
(0.0200962 -0.259869 0)
(0.0168219 0.0668114 0)
(0.0332073 0.118935 0)
(0.0484392 0.127324 0)
(0.0552996 0.120198 0)
(0.0608092 0.100595 0)
(0.0614326 0.0754971 0)
(0.0611775 0.0548976 0)
(0.0609289 0.0387394 0)
(0.0588032 0.0256568 0)
(0.0581324 0.01444 0)
(0.0539734 0.00482447 0)
(0.0528872 -0.00467559 0)
(0.047673 -0.014278 0)
(0.0470303 -0.0265622 0)
(0.0412636 -0.0414332 0)
(0.0416654 -0.0616339 0)
(0.0294875 -0.0861193 0)
(0.0311885 -0.107767 0)
(-0.00910085 -0.155016 0)
(0.02602 -0.257472 0)
(0.0153675 0.0263702 0)
(0.0378785 0.102427 0)
(0.0547889 0.117152 0)
(0.0654165 0.114003 0)
(0.0743731 0.0997652 0)
(0.0796839 0.0786797 0)
(0.0814902 0.0585434 0)
(0.083539 0.0417667 0)
(0.0819372 0.0284776 0)
(0.0823965 0.0174617 0)
(0.0779836 0.00841687 0)
(0.0770705 -0.000563567 0)
(0.0712596 -0.00956327 0)
(0.0697864 -0.0212441 0)
(0.0631113 -0.0349002 0)
(0.0605753 -0.0532552 0)
(0.0465673 -0.0727866 0)
(0.0400412 -0.0909212 0)
(-0.00317523 -0.144742 0)
(0.0326023 -0.252932 0)
(0.00221971 0.0100852 0)
(0.0307773 0.0733671 0)
(0.0532341 0.0964633 0)
(0.0693943 0.0972716 0)
(0.0842573 0.0882533 0)
(0.0961055 0.073062 0)
(0.102542 0.0572766 0)
(0.108655 0.0422871 0)
(0.109252 0.0297068 0)
(0.111789 0.0185943 0)
(0.108594 0.00972243 0)
(0.108103 0.0008869 0)
(0.1019 -0.00732433 0)
(0.098711 -0.0175276 0)
(0.0896027 -0.0285674 0)
(0.0821466 -0.0430522 0)
(0.0640356 -0.0576117 0)
(0.0476469 -0.0755871 0)
(0.00314879 -0.137209 0)
(0.0423016 -0.248399 0)
(-0.0202626 -0.00306546 0)
(0.0149606 0.0585386 0)
(0.0408505 0.0788825 0)
(0.0643613 0.0806119 0)
(0.0849809 0.0745376 0)
(0.105143 0.0628818 0)
(0.117098 0.0507635 0)
(0.129468 0.0398368 0)
(0.133422 0.030581 0)
(0.139283 0.0217137 0)
(0.137708 0.0146491 0)
(0.138262 0.00726634 0)
(0.131594 0.00100849 0)
(0.127181 -0.00686366 0)
(0.114606 -0.0144082 0)
(0.103191 -0.0248073 0)
(0.0803065 -0.035091 0)
(0.0558879 -0.0542518 0)
(0.0183525 -0.12694 0)
(0.0552216 -0.235163 0)
(-0.0269484 0.0220217 0)
(-0.0177213 0.0212336 0)
(0.0128616 0.0406212 0)
(0.0453142 0.0443435 0)
(0.0720206 0.0437016 0)
(0.0992461 0.0382499 0)
(0.117029 0.0325976 0)
(0.133469 0.0243064 0)
(0.142614 0.0197662 0)
(0.150087 0.0133343 0)
(0.152651 0.0106602 0)
(0.152815 0.00496902 0)
(0.148761 0.00354243 0)
(0.143573 -0.0020578 0)
(0.130989 -0.00355532 0)
(0.120043 -0.0106596 0)
(0.0950815 -0.0143175 0)
(0.0786923 -0.0403189 0)
(0.0572685 -0.113489 0)
(0.0795961 -0.184133 0)
(0.0350269 0.0317234 0)
(0.0393261 0.0176887 0)
(0.0566829 0.0163695 0)
(0.0905576 0.0182449 0)
(0.118317 0.0200922 0)
(0.148398 0.0191461 0)
(0.172766 0.0177152 0)
(0.195621 0.015745 0)
(0.213276 0.01381 0)
(0.228646 0.0124819 0)
(0.240042 0.0107696 0)
(0.249544 0.0100438 0)
(0.256161 0.00847945 0)
(0.260813 0.00824233 0)
(0.26413 0.00680308 0)
(0.263394 0.0059872 0)
(0.257423 0.00521845 0)
(0.242955 -0.00213026 0)
(0.202824 -0.014415 0)
(0.149298 -0.0336343 0)
)
;

boundaryField
{
    movingWall
    {
        type            fixedValue;
        value           uniform (1 0 0);
    }
    fixedWalls
    {
        type            noSlip;
    }
    frontAndBack
    {
        type            empty;
    }
}


// ************************************************************************* //
