/*--------------------------------*- C++ -*----------------------------------*\
| =========                 |                                                 |
| \\      /  F ield         | OpenFOAM: The Open Source CFD Toolbox           |
|  \\    /   O peration     | Version:  5.0                                   |
|   \\  /    A nd           | Web:      www.OpenFOAM.org                      |
|    \\/     M anipulation  |                                                 |
\*---------------------------------------------------------------------------*/
FoamFile
{
    version     2.0;
    format      ascii;
    class       volScalarField;
    location    "9";
    object      yPlus;
}
// * * * * * * * * * * * * * * * * * * * * * * * * * * * * * * * * * * * * * //

dimensions      [0 0 0 0 0 0 0];

internalField   uniform 0;

boundaryField
{
    movingWall
    {
        type            calculated;
        value           nonuniform List<scalar> 
20
(
15.5362
15.4987
15.3579
15.08
14.8485
14.593
14.3825
14.1821
14.0254
13.8875
13.7844
13.6978
13.6371
13.5944
13.5638
13.5705
13.6253
13.7573
14.1183
14.5891
)
;
    }
    fixedWalls
    {
        type            calculated;
        value           nonuniform List<scalar> 
60
(
1.13303
1.50522
1.74553
3.0421
3.97177
4.67925
5.19703
5.51227
5.70517
5.74236
5.67928
5.48804
5.23969
4.67313
4.1502
2.7623
1.60675
2.26347
2.94966
3.4372
1.75769
3.8514
5.38383
6.10734
6.73349
7.09442
7.42776
7.61819
7.81762
7.92268
8.0315
8.07848
8.1011
8.07225
8.04337
7.98474
7.93686
7.77109
7.08167
6.18546
1.13303
1.51332
0.893902
2.13748
4.11893
4.94812
5.63551
6.04127
6.3698
6.56497
6.71266
6.77736
6.80009
6.73846
6.56453
6.25559
5.75274
4.99102
3.93046
1.75769
)
;
    }
    frontAndBack
    {
        type            empty;
    }
}


// ************************************************************************* //
