/*--------------------------------*- C++ -*----------------------------------*\
| =========                 |                                                 |
| \\      /  F ield         | OpenFOAM: The Open Source CFD Toolbox           |
|  \\    /   O peration     | Version:  5.0                                   |
|   \\  /    A nd           | Web:      www.OpenFOAM.org                      |
|    \\/     M anipulation  |                                                 |
\*---------------------------------------------------------------------------*/
FoamFile
{
    version     2.0;
    format      ascii;
    class       volScalarField;
    location    "4.5";
    object      epsilon;
}
// * * * * * * * * * * * * * * * * * * * * * * * * * * * * * * * * * * * * * //

dimensions      [0 2 -3 0 0 0 0];

internalField   nonuniform List<scalar> 
400
(
7.18965e-06
2.06453e-05
9.06985e-05
0.000288601
0.000506896
0.000659778
0.000787787
0.00089707
0.00100266
0.00109856
0.00119728
0.00129234
0.00139473
0.00147493
0.00151437
0.00152431
0.00143486
0.0011312
0.000682325
0.000484568
3.73533e-05
9.80803e-05
0.000292554
0.000589679
0.000717424
0.000774963
0.000806853
0.000842105
0.00089004
0.000952791
0.00104051
0.00114909
0.00128508
0.00144547
0.00162976
0.00182438
0.00192985
0.00195276
0.00159855
0.00111208
0.000151413
0.000365425
0.000623846
0.000710881
0.000741119
0.000758065
0.000772869
0.000803025
0.000860994
0.000929896
0.00101613
0.00111297
0.00122545
0.00136354
0.00153414
0.00173941
0.00193164
0.00201239
0.00191356
0.00154534
0.000376309
0.000637582
0.000710801
0.000710673
0.00071559
0.000712051
0.000721941
0.000755776
0.000800441
0.000851395
0.000907914
0.000976774
0.00107161
0.00120252
0.00138829
0.00164129
0.00193062
0.00206738
0.00207119
0.00182777
0.000595338
0.000751282
0.000729419
0.000685826
0.000657605
0.00064581
0.000644937
0.000660053
0.000676605
0.000697833
0.000729054
0.00078017
0.000864627
0.00100123
0.00121832
0.00154252
0.00196661
0.00223661
0.0022828
0.00204773
0.000754502
0.000796507
0.000710954
0.000632396
0.000591686
0.000570064
0.000556314
0.000547514
0.000539463
0.000536585
0.000545295
0.000578409
0.000650241
0.00078511
0.0010226
0.00141242
0.00197699
0.00244627
0.00256268
0.00222543
0.00081971
0.000781046
0.000665893
0.000575082
0.000530462
0.000500362
0.000473237
0.000446354
0.000419706
0.000402931
0.0003976
0.000412805
0.000467457
0.000586176
0.000819408
0.00124654
0.00194316
0.00266881
0.00288927
0.00237024
0.00081278
0.000740328
0.000610842
0.000524236
0.000478177
0.000442096
0.000405945
0.000368766
0.000333358
0.000307473
0.00029636
0.000298514
0.000334949
0.00042899
0.000636964
0.00106426
0.00184291
0.00286834
0.00328591
0.00248822
0.000785941
0.000680246
0.000559498
0.00048115
0.000435827
0.000397199
0.000357034
0.000316161
0.000278565
0.000249197
0.000233604
0.00023005
0.000250911
0.000319195
0.000490684
0.000890112
0.00171315
0.00298852
0.0036923
0.00257623
0.00072629
0.000626952
0.000516083
0.000446428
0.000403091
0.00036452
0.000324141
0.000283782
0.000247468
0.000218902
0.000201471
0.000195863
0.000208236
0.000255471
0.000388431
0.000743852
0.00158147
0.00304371
0.00412739
0.00264353
0.000655049
0.00057732
0.000479236
0.000417819
0.000377588
0.000341104
0.00030317
0.000265749
0.000232507
0.000206391
0.000189277
0.000183207
0.000191559
0.000226532
0.000330417
0.000633191
0.0014434
0.00306034
0.00454913
0.0026804
0.000595285
0.000547423
0.00045416
0.00039788
0.000360063
0.000325736
0.000290865
0.000257128
0.000227791
0.000204573
0.000188453
0.000182231
0.000188486
0.000217651
0.000305239
0.000565353
0.00131555
0.00304941
0.00494001
0.00269726
0.000526342
0.000512964
0.000437504
0.000382849
0.000346806
0.00031508
0.000284373
0.000255249
0.00022905
0.000207762
0.000193111
0.000188522
0.000194379
0.000219816
0.000298521
0.000534837
0.00122213
0.00300928
0.00519149
0.00270115
0.000467712
0.000498464
0.000438111
0.000383917
0.000347664
0.000316013
0.000286068
0.000258188
0.000233926
0.000215021
0.000201722
0.000199553
0.000206724
0.000233538
0.000308908
0.000528181
0.00117734
0.00296958
0.0052932
0.00269028
0.00039063
0.000469135
0.000438752
0.00039113
0.000355857
0.000324215
0.000294583
0.000267525
0.000244411
0.000226552
0.000214086
0.000214701
0.000224715
0.000257021
0.000339483
0.000559533
0.0011699
0.00295408
0.00529086
0.00267737
0.000324804
0.000447424
0.000441259
0.000413997
0.000380621
0.000348796
0.000317938
0.000289733
0.000265886
0.000247276
0.00023677
0.000239782
0.000255679
0.000300432
0.000404994
0.000659878
0.00126875
0.00300532
0.00495783
0.00262001
0.000226339
0.000374652
0.000437057
0.00044489
0.000432419
0.000404998
0.000372759
0.000342085
0.00031703
0.000298561
0.000296829
0.000307524
0.000341129
0.000421336
0.000587307
0.000961275
0.00162926
0.00329755
0.00448888
0.00253136
0.000178638
0.00035159
0.000490327
0.000554654
0.000572514
0.000561985
0.000536777
0.000510628
0.000498779
0.000505322
0.000533865
0.000598998
0.000720548
0.000939631
0.0012754
0.00201796
0.00281147
0.00413019
0.00423462
0.00238271
0.000249835
0.000402406
0.000743408
0.000936512
0.00104859
0.00111705
0.0011768
0.00124927
0.00136863
0.00153464
0.00178513
0.00212201
0.00259751
0.00328003
0.00411164
0.00532001
0.00565905
0.00527384
0.00430407
0.00215942
0.000183968
0.000300001
0.000560484
0.000816409
0.00102463
0.00117827
0.00129383
0.00137229
0.00144117
0.00149377
0.00154924
0.00160767
0.00167032
0.0017576
0.00184091
0.00195901
0.00205773
0.00214259
0.00211306
0.00188744
)
;

boundaryField
{
    movingWall
    {
        Cmu             0.09;
        kappa           0.41;
        E               9.8;
        type            epsilonWallFunction;
        value           nonuniform List<scalar> 
20
(
0.000183968
0.000300001
0.000560484
0.000816409
0.00102463
0.00117827
0.00129383
0.00137229
0.00144117
0.00149377
0.00154924
0.00160767
0.00167032
0.0017576
0.00184091
0.00195901
0.00205773
0.00214259
0.00211306
0.00188744
)
;
    }
    fixedWalls
    {
        Cmu             0.09;
        kappa           0.41;
        E               9.8;
        type            epsilonWallFunction;
        value           nonuniform List<scalar> 
60
(
7.18965e-06
3.73533e-05
0.000151413
0.000376309
0.000595338
0.000754502
0.00081971
0.00081278
0.000785941
0.00072629
0.000655049
0.000595285
0.000526342
0.000467712
0.00039063
0.000324804
0.000226339
0.000178638
0.000249835
0.000183968
0.000484568
0.00111208
0.00154534
0.00182777
0.00204773
0.00222543
0.00237024
0.00248822
0.00257623
0.00264353
0.0026804
0.00269726
0.00270115
0.00269028
0.00267737
0.00262001
0.00253136
0.00238271
0.00215942
0.00188744
7.18965e-06
2.06453e-05
9.06985e-05
0.000288601
0.000506896
0.000659778
0.000787787
0.00089707
0.00100266
0.00109856
0.00119728
0.00129234
0.00139473
0.00147493
0.00151437
0.00152431
0.00143486
0.0011312
0.000682325
0.000484568
)
;
    }
    frontAndBack
    {
        type            empty;
    }
}


// ************************************************************************* //
