/*--------------------------------*- C++ -*----------------------------------*\
| =========                 |                                                 |
| \\      /  F ield         | OpenFOAM: The Open Source CFD Toolbox           |
|  \\    /   O peration     | Version:  5.0                                   |
|   \\  /    A nd           | Web:      www.OpenFOAM.org                      |
|    \\/     M anipulation  |                                                 |
\*---------------------------------------------------------------------------*/
FoamFile
{
    version     2.0;
    format      ascii;
    class       volScalarField;
    location    "4.5";
    object      k;
}
// * * * * * * * * * * * * * * * * * * * * * * * * * * * * * * * * * * * * * //

dimensions      [0 2 -2 0 0 0 0];

internalField   nonuniform List<scalar> 
400
(
2.25271e-06
6.4638e-06
2.83879e-05
9.02338e-05
0.000158379
0.00020617
0.000246156
0.000280334
0.000313332
0.000343327
0.000374186
0.000403917
0.00043593
0.000461023
0.000473365
0.000476478
0.000448538
0.00035362
0.000213281
0.000151471
1.17022e-05
4.96142e-05
0.000117059
0.000232955
0.00032528
0.00039425
0.000457994
0.000512052
0.000572111
0.000626749
0.000686086
0.000743112
0.000799648
0.000852485
0.000902385
0.00092841
0.000936723
0.000847979
0.00056494
0.000347571
4.74108e-05
0.000178663
0.000320811
0.000417125
0.000493008
0.000553135
0.000608304
0.000657836
0.00070946
0.000758198
0.000805758
0.000850262
0.000893609
0.000940371
0.00098903
0.00102058
0.00103125
0.000989149
0.000727366
0.000482898
0.000117793
0.000360411
0.000459595
0.000520182
0.000578271
0.000626798
0.000668634
0.000708056
0.000748159
0.000785629
0.00082237
0.000858441
0.000897443
0.000946369
0.00100701
0.00106934
0.00109511
0.00109491
0.000874035
0.00057109
0.00018621
0.00047215
0.000537896
0.000569719
0.000610847
0.000641084
0.000670958
0.000701922
0.000729688
0.000751518
0.000771188
0.000796056
0.000835643
0.000894553
0.000980654
0.00109108
0.00117234
0.00118944
0.00100998
0.000639774
0.000235956
0.000537709
0.000572463
0.000584745
0.000611155
0.00063604
0.000657615
0.000670179
0.000674692
0.000676449
0.000683505
0.000701723
0.000739114
0.000806289
0.000916991
0.00107789
0.00123826
0.00129513
0.00115397
0.000695257
0.000256279
0.000545872
0.000572643
0.000582829
0.000605225
0.000619521
0.000623836
0.000618834
0.000608561
0.000600309
0.000597855
0.000607048
0.000638303
0.000704371
0.000824882
0.00101736
0.00126584
0.00139519
0.00129586
0.000740468
0.000254106
0.000538681
0.000566348
0.000575698
0.000589892
0.000593531
0.000588246
0.000573382
0.000554448
0.00053786
0.000530269
0.000531466
0.000554723
0.000613963
0.000734841
0.000950451
0.00126729
0.0014863
0.00144785
0.000777299
0.00024571
0.000519961
0.000551095
0.000560913
0.000569927
0.000569933
0.000558973
0.000539186
0.00051612
0.000495075
0.000482059
0.000478582
0.000493098
0.00054129
0.000650798
0.000867253
0.00122478
0.00155891
0.00158598
0.000804774
0.000227067
0.000497563
0.000531255
0.000543392
0.000551178
0.00054955
0.000536588
0.000515562
0.000491532
0.000469087
0.000452332
0.000445166
0.000453452
0.000491186
0.000587114
0.000793158
0.00116652
0.00160674
0.00172326
0.000825788
0.000204793
0.00046546
0.000507414
0.000523639
0.00053283
0.000531514
0.000519628
0.000499601
0.000476745
0.000454896
0.000437484
0.000428812
0.000434865
0.000465866
0.000547677
0.000737122
0.0011111
0.00162738
0.00184724
0.000837306
0.000186125
0.000435488
0.000488166
0.000506438
0.000516136
0.000515222
0.000506116
0.000488342
0.000467869
0.000447912
0.000431605
0.000423885
0.000429549
0.000457195
0.000529943
0.000700322
0.00106154
0.00163331
0.00195844
0.000842576
0.000164584
0.000394902
0.000462651
0.000487066
0.000499503
0.000499973
0.000493873
0.00047966
0.00046199
0.000444656
0.000430456
0.000424975
0.000431214
0.000457353
0.000525505
0.000683696
0.0010183
0.00163163
0.00202592
0.000843795
0.000146268
0.000367798
0.000447067
0.000475684
0.000488235
0.000488007
0.000483306
0.000472132
0.000457503
0.000443128
0.000431441
0.000429893
0.00043839
0.000466956
0.000533374
0.000680326
0.000989494
0.00161209
0.00205216
0.000840424
0.000122207
0.00032081
0.000418367
0.000460884
0.000480756
0.000484066
0.000480561
0.000471416
0.000458143
0.000444888
0.000435243
0.000436843
0.000448883
0.000482267
0.000551882
0.000695817
0.000980187
0.00158798
0.0020291
0.000836406
0.000101652
0.000291778
0.000402816
0.00045505
0.000484763
0.000490954
0.000487635
0.000478628
0.000465258
0.000452321
0.000445272
0.000449077
0.000465418
0.000506443
0.00058332
0.000739308
0.000994352
0.0015763
0.00191911
0.000818452
7.09103e-05
0.000225003
0.000365043
0.000455475
0.000499981
0.000514228
0.000512013
0.000504125
0.000490767
0.0004786
0.000476973
0.000484828
0.000509437
0.00056687
0.000660766
0.00085493
0.00109351
0.00159351
0.00175576
0.000790695
5.5835e-05
0.000227468
0.000388648
0.000496538
0.00056102
0.000588481
0.000590759
0.000588159
0.000582683
0.000584624
0.000597051
0.000626969
0.000686175
0.000790818
0.000929324
0.00121147
0.00144949
0.00173212
0.00158866
0.000744186
7.80761e-05
0.000275382
0.00049266
0.000627195
0.000718878
0.000782667
0.000827792
0.000871929
0.000925699
0.000991255
0.00108547
0.00120085
0.00136247
0.00156717
0.00180946
0.00212336
0.0021238
0.00195026
0.00150949
0.000674323
5.74982e-05
9.37539e-05
0.000175121
0.000255049
0.000320054
0.000368021
0.00040405
0.00042856
0.00045001
0.000466487
0.00048374
0.000502054
0.000521521
0.000548834
0.000574747
0.000611643
0.000642461
0.000668973
0.000659761
0.000589286
)
;

boundaryField
{
    movingWall
    {
        type            kqRWallFunction;
        value           nonuniform List<scalar> 
20
(
5.74982e-05
9.37539e-05
0.000175121
0.000255049
0.000320054
0.000368021
0.00040405
0.00042856
0.00045001
0.000466487
0.00048374
0.000502054
0.000521521
0.000548834
0.000574747
0.000611643
0.000642461
0.000668973
0.000659761
0.000589286
)
;
    }
    fixedWalls
    {
        type            kqRWallFunction;
        value           nonuniform List<scalar> 
60
(
2.25271e-06
1.17022e-05
4.74108e-05
0.000117793
0.00018621
0.000235956
0.000256279
0.000254106
0.00024571
0.000227067
0.000204793
0.000186125
0.000164584
0.000146268
0.000122207
0.000101652
7.09103e-05
5.5835e-05
7.80761e-05
5.74982e-05
0.000151471
0.000347571
0.000482898
0.00057109
0.000639774
0.000695257
0.000740468
0.000777299
0.000804774
0.000825788
0.000837306
0.000842576
0.000843795
0.000840424
0.000836406
0.000818452
0.000790695
0.000744186
0.000674323
0.000589286
2.25271e-06
6.4638e-06
2.83879e-05
9.02338e-05
0.000158379
0.00020617
0.000246156
0.000280334
0.000313332
0.000343327
0.000374186
0.000403917
0.00043593
0.000461023
0.000473365
0.000476478
0.000448538
0.00035362
0.000213281
0.000151471
)
;
    }
    frontAndBack
    {
        type            empty;
    }
}


// ************************************************************************* //
