/*--------------------------------*- C++ -*----------------------------------*\
| =========                 |                                                 |
| \\      /  F ield         | OpenFOAM: The Open Source CFD Toolbox           |
|  \\    /   O peration     | Version:  5.0                                   |
|   \\  /    A nd           | Web:      www.OpenFOAM.org                      |
|    \\/     M anipulation  |                                                 |
\*---------------------------------------------------------------------------*/
FoamFile
{
    version     2.0;
    format      ascii;
    class       volScalarField;
    location    "4.5";
    object      nut;
}
// * * * * * * * * * * * * * * * * * * * * * * * * * * * * * * * * * * * * * //

dimensions      [0 2 -1 0 0 0 0];

internalField   nonuniform List<scalar> 
400
(
6.35252e-08
1.82136e-07
7.99669e-07
2.53911e-06
4.45366e-06
5.79824e-06
6.92239e-06
7.8844e-06
8.81245e-06
9.65683e-06
1.0525e-05
1.13619e-05
1.22627e-05
1.29693e-05
1.33169e-05
1.34047e-05
1.26192e-05
9.94897e-06
6.00004e-06
4.26132e-06
3.29953e-07
2.25878e-06
4.21547e-06
8.28269e-06
1.32734e-05
1.80512e-05
2.33974e-05
2.80223e-05
3.30974e-05
3.71049e-05
4.07151e-05
4.3251e-05
4.47826e-05
4.52489e-05
4.49678e-05
4.25212e-05
4.09205e-05
3.31409e-05
1.79689e-05
9.77676e-06
1.33609e-06
7.86167e-06
1.48479e-05
2.20282e-05
2.95163e-05
3.63243e-05
4.30902e-05
4.85008e-05
5.26136e-05
5.56382e-05
5.75046e-05
5.84609e-05
5.86464e-05
5.83679e-05
5.73847e-05
5.38928e-05
4.95504e-05
4.37577e-05
2.48833e-05
1.35809e-05
3.31846e-06
1.83359e-05
2.67451e-05
3.42675e-05
4.20572e-05
4.96577e-05
5.57337e-05
5.97013e-05
6.29363e-05
6.52448e-05
6.70397e-05
6.79e-05
6.76427e-05
6.70305e-05
6.57399e-05
6.27025e-05
5.59059e-05
5.21889e-05
3.31956e-05
1.60595e-05
5.24187e-06
2.67054e-05
3.56995e-05
4.25941e-05
5.10671e-05
5.72753e-05
6.28226e-05
6.71802e-05
7.08242e-05
7.284e-05
7.34182e-05
7.31039e-05
7.26867e-05
7.19318e-05
7.10417e-05
6.94586e-05
6.28972e-05
5.69295e-05
4.02162e-05
1.79897e-05
6.64119e-06
3.26699e-05
4.14854e-05
4.86617e-05
5.68139e-05
6.38686e-05
6.99626e-05
7.38294e-05
7.59438e-05
7.67492e-05
7.71071e-05
7.66195e-05
7.56121e-05
7.45234e-05
7.40057e-05
7.40331e-05
6.98012e-05
6.17111e-05
4.6767e-05
1.95488e-05
7.21121e-06
3.43358e-05
4.43207e-05
5.31611e-05
6.21473e-05
6.90351e-05
7.40125e-05
7.72168e-05
7.94156e-05
8.04936e-05
8.09075e-05
8.03421e-05
7.84431e-05
7.61759e-05
7.47353e-05
7.47292e-05
7.42154e-05
6.56439e-05
5.23083e-05
2.08191e-05
7.14988e-06
3.52762e-05
4.72586e-05
5.68992e-05
6.54935e-05
7.17155e-05
7.67172e-05
8.02377e-05
8.29953e-05
8.46788e-05
8.53916e-05
8.51586e-05
8.26828e-05
7.90825e-05
7.62981e-05
7.63928e-05
7.84317e-05
6.9315e-05
5.74159e-05
2.18539e-05
6.9135e-06
3.57699e-05
4.88536e-05
5.88509e-05
6.7076e-05
7.36006e-05
7.87616e-05
8.27582e-05
8.6063e-05
8.85202e-05
8.9529e-05
8.96054e-05
8.72145e-05
8.26124e-05
7.76843e-05
7.60484e-05
7.8807e-05
7.3186e-05
6.13117e-05
2.26258e-05
6.38912e-06
3.55389e-05
4.92186e-05
5.95275e-05
6.78301e-05
7.45652e-05
7.9945e-05
8.42984e-05
8.78673e-05
9.04689e-05
9.13997e-05
9.10613e-05
8.88686e-05
8.4995e-05
7.9868e-05
7.6116e-05
7.74397e-05
7.63364e-05
6.47545e-05
2.32164e-05
5.76236e-06
3.37746e-05
4.83524e-05
5.90633e-05
6.76708e-05
7.45392e-05
8.01568e-05
8.45313e-05
8.79787e-05
9.02352e-05
9.10061e-05
9.03302e-05
8.88483e-05
8.62252e-05
8.17012e-05
7.72301e-05
7.69772e-05
7.78848e-05
6.75093e-05
2.35403e-05
5.23754e-06
3.11797e-05
4.72247e-05
5.80153e-05
6.65876e-05
7.3344e-05
7.92594e-05
8.34723e-05
8.64879e-05
8.82632e-05
8.89638e-05
8.87393e-05
8.81028e-05
8.64339e-05
8.28059e-05
7.8076e-05
7.7092e-05
7.87345e-05
6.98771e-05
2.36885e-05
4.63178e-06
2.73611e-05
4.40318e-05
5.57688e-05
6.47489e-05
7.14028e-05
7.71941e-05
8.11233e-05
8.38643e-05
8.56495e-05
8.63562e-05
8.62198e-05
8.60954e-05
8.56419e-05
8.32569e-05
7.86588e-05
7.63614e-05
7.96196e-05
7.1153e-05
2.37229e-05
4.11684e-06
2.44245e-05
4.10585e-05
5.30446e-05
6.17079e-05
6.78249e-05
7.34881e-05
7.77022e-05
8.05288e-05
8.21904e-05
8.30485e-05
8.33498e-05
8.36707e-05
8.40308e-05
8.28853e-05
7.88667e-05
7.48458e-05
7.8764e-05
7.16059e-05
2.36288e-05
3.44089e-06
1.97442e-05
3.59037e-05
4.88769e-05
5.84541e-05
6.50457e-05
7.05556e-05
7.47633e-05
7.72901e-05
7.86275e-05
7.96376e-05
7.99944e-05
8.07005e-05
8.1442e-05
8.07451e-05
7.78764e-05
7.39115e-05
7.68263e-05
7.00366e-05
2.35162e-05
2.86323e-06
1.71249e-05
3.30951e-05
4.50156e-05
5.5566e-05
6.21946e-05
6.73117e-05
7.11606e-05
7.32716e-05
7.44654e-05
7.53645e-05
7.56949e-05
7.62492e-05
7.68348e-05
7.56149e-05
7.45468e-05
7.01369e-05
7.44096e-05
6.68575e-05
2.30104e-05
1.99941e-06
1.21616e-05
2.74406e-05
4.1968e-05
5.20288e-05
5.87625e-05
6.32959e-05
6.68627e-05
6.83744e-05
6.90487e-05
6.89802e-05
6.8792e-05
6.84708e-05
6.86405e-05
6.69072e-05
6.84315e-05
6.60539e-05
6.93048e-05
6.1807e-05
2.22283e-05
1.57065e-06
1.32448e-05
2.77249e-05
4.00061e-05
4.94781e-05
5.54603e-05
5.85154e-05
6.09715e-05
6.12632e-05
6.08735e-05
6.00945e-05
5.90622e-05
5.88098e-05
5.99016e-05
6.09439e-05
6.54567e-05
6.72575e-05
6.53779e-05
5.36401e-05
2.09187e-05
2.19597e-06
1.6961e-05
2.93839e-05
3.78037e-05
4.43555e-05
4.93541e-05
5.24059e-05
5.47706e-05
5.63501e-05
5.76244e-05
5.94027e-05
6.11606e-05
6.43188e-05
6.73903e-05
7.16678e-05
7.62738e-05
7.17342e-05
6.49083e-05
4.76457e-05
1.89514e-05
1.61737e-06
2.63693e-06
4.92443e-06
7.17104e-06
8.99751e-06
1.03453e-05
1.13563e-05
1.20454e-05
1.26465e-05
1.31111e-05
1.3594e-05
1.41106e-05
1.46551e-05
1.54243e-05
1.61496e-05
1.71871e-05
1.8053e-05
1.87984e-05
1.85398e-05
1.65586e-05
)
;

boundaryField
{
    movingWall
    {
        type            nutkWallFunction;
        Cmu             0.09;
        kappa           0.41;
        E               9.8;
        value           uniform 0;
    }
    fixedWalls
    {
        type            nutkWallFunction;
        Cmu             0.09;
        kappa           0.41;
        E               9.8;
        value           uniform 0;
    }
    frontAndBack
    {
        type            empty;
    }
}


// ************************************************************************* //
