/*--------------------------------*- C++ -*----------------------------------*\
| =========                 |                                                 |
| \\      /  F ield         | OpenFOAM: The Open Source CFD Toolbox           |
|  \\    /   O peration     | Version:  5.0                                   |
|   \\  /    A nd           | Web:      www.OpenFOAM.org                      |
|    \\/     M anipulation  |                                                 |
\*---------------------------------------------------------------------------*/
FoamFile
{
    version     2.0;
    format      ascii;
    class       volScalarField;
    location    "4.5";
    object      p;
}
// * * * * * * * * * * * * * * * * * * * * * * * * * * * * * * * * * * * * * //

dimensions      [0 2 -2 0 0 0 0];

internalField   nonuniform List<scalar> 
400
(
4.71796e-08
-5.5593e-05
-0.000147836
-0.000174165
-0.000423197
-0.00109266
-0.00205703
-0.0030739
-0.00395164
-0.00456025
-0.00482259
-0.00466068
-0.00403913
-0.00294049
-0.00135874
0.000622307
0.00277465
0.00465401
0.00578572
0.00598567
3.52462e-05
-1.13585e-05
-9.37688e-05
-0.00034496
-0.000846374
-0.00164623
-0.00262459
-0.00360435
-0.00444066
-0.00503687
-0.00531507
-0.00521879
-0.00471448
-0.00374598
-0.00230594
-0.000436809
0.00167403
0.0036582
0.00503943
0.00557262
0.00018889
2.83754e-05
-0.000269285
-0.000785705
-0.001563
-0.002522
-0.00353714
-0.00449115
-0.00530195
-0.00588052
-0.00615006
-0.00607699
-0.00564603
-0.00483193
-0.00361454
-0.0020064
-9.78558e-05
0.00187839
0.00352685
0.00434551
0.0001671
-0.000125354
-0.000680235
-0.0014961
-0.00250786
-0.00359119
-0.0046428
-0.00557548
-0.00631997
-0.00682177
-0.00705759
-0.00700991
-0.00666026
-0.0059951
-0.00499894
-0.00366705
-0.00203325
-0.000219918
0.00147862
0.00237207
-0.00019203
-0.000607142
-0.00136813
-0.00239392
-0.00353528
-0.00466649
-0.00570199
-0.00657608
-0.00724649
-0.00768771
-0.00789268
-0.00785791
-0.00757606
-0.00704462
-0.00625203
-0.00518653
-0.0038515
-0.00229471
-0.000707432
0.000136626
-0.000900786
-0.00139243
-0.00226222
-0.0033605
-0.00452793
-0.00564082
-0.00662414
-0.00742953
-0.00803297
-0.0084232
-0.00860045
-0.00856967
-0.00833794
-0.00791047
-0.00728354
-0.00644472
-0.00538322
-0.00411564
-0.00280811
-0.002003
-0.00181605
-0.00233141
-0.00320929
-0.00428328
-0.00541102
-0.00646717
-0.00738407
-0.00812318
-0.00866882
-0.00901648
-0.00917076
-0.00914163
-0.00894324
-0.00858909
-0.00808439
-0.00742117
-0.00658567
-0.00557976
-0.00457073
-0.00385014
-0.00273097
-0.00323173
-0.00406141
-0.00507233
-0.00613408
-0.00712193
-0.00797398
-0.00865637
-0.00915644
-0.00947223
-0.00960971
-0.00958086
-0.00940311
-0.00909617
-0.00867417
-0.00813649
-0.00747258
-0.00668139
-0.00593069
-0.00529092
-0.00349242
-0.00396366
-0.00472415
-0.00566839
-0.00666346
-0.00758941
-0.00838905
-0.00902993
-0.00949916
-0.00979446
-0.00992113
-0.00989107
-0.00972308
-0.00944128
-0.00906813
-0.0086121
-0.00807053
-0.00743229
-0.00687217
-0.00630896
-0.00402818
-0.00444518
-0.00514421
-0.00603819
-0.006978
-0.00785842
-0.00862414
-0.0092413
-0.00969484
-0.00998049
-0.0101017
-0.010069
-0.00990164
-0.00962649
-0.00927312
-0.00886007
-0.0084051
-0.00785307
-0.00743775
-0.00690288
-0.00430297
-0.00466555
-0.00531288
-0.00616703
-0.0070668
-0.00792149
-0.00867287
-0.00928416
-0.00973658
-0.0100227
-0.0101434
-0.0101075
-0.00993371
-0.00965091
-0.00929442
-0.00888854
-0.00849642
-0.00795196
-0.0076683
-0.00708609
-0.00430811
-0.00463357
-0.0052394
-0.00605176
-0.0069295
-0.00777551
-0.00852986
-0.00915158
-0.00961662
-0.00991306
-0.0100384
-0.00999938
-0.00981412
-0.00951277
-0.00913489
-0.00871971
-0.00834128
-0.00773951
-0.00762872
-0.00685423
-0.00409074
-0.00438991
-0.00495445
-0.00571521
-0.006576
-0.00742383
-0.00819483
-0.00884132
-0.00933192
-0.00964869
-0.00978487
-0.00974441
-0.00954448
-0.0092167
-0.00880528
-0.00835717
-0.00794257
-0.00727279
-0.00734371
-0.00621242
-0.00372952
-0.00398591
-0.00449119
-0.00519007
-0.00602138
-0.00687522
-0.00767421
-0.00835902
-0.0088883
-0.0092364
-0.00939133
-0.00935397
-0.0091393
-0.00878042
-0.00832544
-0.00782232
-0.00734501
-0.00662248
-0.00676001
-0.00518989
-0.00333823
-0.00351673
-0.00391021
-0.00451688
-0.00530028
-0.00615734
-0.00699174
-0.00772664
-0.00830757
-0.00869927
-0.0088835
-0.00885762
-0.00863368
-0.00824294
-0.00773651
-0.0071582
-0.00659106
-0.00577701
-0.00585194
-0.00382778
-0.00301344
-0.00303581
-0.00325055
-0.00372748
-0.00444973
-0.00530874
-0.00618567
-0.0069825
-0.00762928
-0.00807935
-0.00830703
-0.00830427
-0.00808625
-0.00766943
-0.00710553
-0.00642447
-0.00571552
-0.00472135
-0.00457342
-0.00193829
-0.00282794
-0.0026138
-0.00257791
-0.00289323
-0.00354386
-0.00440421
-0.00532847
-0.00619655
-0.00692192
-0.00744593
-0.00773525
-0.00777534
-0.00757484
-0.00713875
-0.00650612
-0.00567451
-0.00472198
-0.00337138
-0.0026551
0.00133765
-0.00275586
-0.00218221
-0.00190877
-0.00206827
-0.00265277
-0.0035211
-0.0045001
-0.00544788
-0.00626253
-0.00687444
-0.00724016
-0.00733481
-0.0071566
-0.00669774
-0.00598371
-0.00494395
-0.00361377
-0.00155515
0.000562256
0.00788442
-0.00277988
-0.00183091
-0.00137198
-0.00141345
-0.0019488
-0.00282933
-0.0038627
-0.00488815
-0.00578731
-0.00648151
-0.00692213
-0.00708105
-0.0069425
-0.00648616
-0.00566678
-0.00438075
-0.00251373
0.000926867
0.00616525
0.0188967
-0.00341253
-0.000614902
-3.23502e-05
-0.000259289
-0.000879836
-0.00181547
-0.00293141
-0.00406076
-0.00506213
-0.00584237
-0.0063459
-0.0065386
-0.00639565
-0.00588723
-0.00496487
-0.0034709
-0.000714126
0.00499244
0.0155542
0.032733
)
;

boundaryField
{
    movingWall
    {
        type            zeroGradient;
    }
    fixedWalls
    {
        type            zeroGradient;
    }
    frontAndBack
    {
        type            empty;
    }
}


// ************************************************************************* //
