/*--------------------------------*- C++ -*----------------------------------*\
| =========                 |                                                 |
| \\      /  F ield         | OpenFOAM: The Open Source CFD Toolbox           |
|  \\    /   O peration     | Version:  5.0                                   |
|   \\  /    A nd           | Web:      www.OpenFOAM.org                      |
|    \\/     M anipulation  |                                                 |
\*---------------------------------------------------------------------------*/
FoamFile
{
    version     2.0;
    format      ascii;
    class       surfaceScalarField;
    location    "4.5";
    object      phi;
}
// * * * * * * * * * * * * * * * * * * * * * * * * * * * * * * * * * * * * * //

dimensions      [0 3 -1 0 0 0 0];

internalField   nonuniform List<scalar> 
760
(
1.5023e-07
-1.50235e-07
7.22814e-08
7.79484e-08
-3.30417e-07
4.02698e-07
-1.18245e-06
8.52031e-07
-2.32555e-06
1.14311e-06
-3.41538e-06
1.08982e-06
-4.36393e-06
9.48556e-07
-5.13986e-06
7.75932e-07
-5.73574e-06
5.9588e-07
-6.15219e-06
4.16441e-07
-6.40132e-06
2.49136e-07
-6.48352e-06
8.2199e-08
-6.37693e-06
-1.06591e-07
-6.08317e-06
-2.93762e-07
-5.54861e-06
-5.34555e-07
-4.7431e-06
-8.05512e-07
-3.62814e-06
-1.11496e-06
-2.24937e-06
-1.37877e-06
-8.22066e-07
-1.4273e-06
-8.22066e-07
-1.59317e-07
9.08275e-09
-7.58951e-07
6.77582e-07
-1.78738e-06
1.43113e-06
-2.92026e-06
1.98491e-06
-3.82264e-06
2.04549e-06
-4.62153e-06
1.88871e-06
-5.29471e-06
1.62174e-06
-5.83527e-06
1.31649e-06
-6.24983e-06
1.01044e-06
-6.54391e-06
7.10518e-07
-6.70196e-06
4.07193e-07
-6.70968e-06
8.99181e-08
-6.58491e-06
-2.31367e-07
-6.29451e-06
-5.84161e-07
-5.82826e-06
-1.0008e-06
-5.13978e-06
-1.49399e-06
-4.19265e-06
-2.0621e-06
-2.93751e-06
-2.6339e-06
-1.42357e-06
-2.94124e-06
-2.24564e-06
-6.32315e-07
6.41398e-07
-1.61567e-06
1.66094e-06
-2.63079e-06
2.44625e-06
-3.45222e-06
2.80634e-06
-4.13531e-06
2.72857e-06
-4.70464e-06
2.45805e-06
-5.16648e-06
2.08357e-06
-5.52181e-06
1.67182e-06
-5.76405e-06
1.25268e-06
-5.90106e-06
8.47529e-07
-5.94128e-06
4.47408e-07
-5.89213e-06
4.07694e-08
-5.75521e-06
-3.68283e-07
-5.51108e-06
-8.28297e-07
-5.14045e-06
-1.37143e-06
-4.61261e-06
-2.02183e-06
-3.88604e-06
-2.78866e-06
-2.90039e-06
-3.61956e-06
-1.59279e-06
-4.24884e-06
-3.83843e-06
-8.89127e-07
1.53052e-06
-1.8717e-06
2.64351e-06
-2.70599e-06
3.28053e-06
-3.33947e-06
3.43983e-06
-3.83896e-06
3.22806e-06
-4.22727e-06
2.84635e-06
-4.51687e-06
2.37317e-06
-4.71826e-06
1.87321e-06
-4.84277e-06
1.37719e-06
-4.89617e-06
9.00926e-07
-4.88647e-06
4.37712e-07
-4.81941e-06
-2.62874e-08
-4.68616e-06
-5.01534e-07
-4.48405e-06
-1.03041e-06
-4.20322e-06
-1.65227e-06
-3.81676e-06
-2.40829e-06
-3.28114e-06
-3.32428e-06
-2.52859e-06
-4.3721e-06
-1.45185e-06
-5.32557e-06
-5.29029e-06
-8.9827e-07
2.42879e-06
-1.75144e-06
3.49669e-06
-2.41961e-06
3.9487e-06
-2.91163e-06
3.93184e-06
-3.27845e-06
3.59488e-06
-3.54399e-06
3.11189e-06
-3.72782e-06
2.55701e-06
-3.84358e-06
1.98898e-06
-3.90111e-06
1.43471e-06
-3.90522e-06
9.05034e-07
-3.86111e-06
3.93602e-07
-3.77583e-06
-1.11565e-07
-3.64715e-06
-6.30209e-07
-3.48003e-06
-1.19753e-06
-3.27122e-06
-1.86108e-06
-3.00147e-06
-2.67804e-06
-2.62646e-06
-3.69929e-06
-2.07197e-06
-4.9266e-06
-1.22982e-06
-6.16772e-06
-6.52011e-06
-7.69746e-07
3.19854e-06
-1.46267e-06
4.18961e-06
-1.98274e-06
4.46877e-06
-2.36229e-06
4.3114e-06
-2.63543e-06
3.86802e-06
-2.82326e-06
3.29972e-06
-2.9456e-06
2.67935e-06
-3.01496e-06
2.05833e-06
-3.03884e-06
1.45859e-06
-3.02042e-06
8.86617e-07
-2.96329e-06
3.3647e-07
-2.87206e-06
-2.02791e-07
-2.75186e-06
-7.50409e-07
-2.61068e-06
-1.33872e-06
-2.45315e-06
-2.01861e-06
-2.27114e-06
-2.86004e-06
-2.03397e-06
-3.93646e-06
-1.66373e-06
-5.29684e-06
-1.00418e-06
-6.82727e-06
-7.52429e-06
-6.02095e-07
3.80063e-06
-1.11676e-06
4.70427e-06
-1.50727e-06
4.85928e-06
-1.79041e-06
4.59454e-06
-1.9922e-06
4.06981e-06
-2.12927e-06
3.43679e-06
-2.21753e-06
2.76762e-06
-2.26597e-06
2.10677e-06
-2.2792e-06
1.47182e-06
-2.25863e-06
8.66046e-07
-2.20575e-06
2.83597e-07
-2.12319e-06
-2.85357e-07
-2.01695e-06
-8.56649e-07
-1.89782e-06
-1.45784e-06
-1.77736e-06
-2.13906e-06
-1.65622e-06
-2.98119e-06
-1.5121e-06
-4.08059e-06
-1.27704e-06
-5.5319e-06
-8.3777e-07
-7.26654e-06
-8.36206e-06
-4.03956e-07
4.20459e-06
-7.63735e-07
5.06405e-06
-1.03666e-06
5.1322e-06
-1.23536e-06
4.79324e-06
-1.37971e-06
4.21416e-06
-1.48079e-06
3.53787e-06
-1.54918e-06
2.836e-06
-1.59004e-06
2.14762e-06
-1.60513e-06
1.48691e-06
-1.59396e-06
8.54877e-07
-1.55592e-06
2.45554e-07
-1.49189e-06
-3.49384e-07
-1.40679e-06
-9.41755e-07
-1.31221e-06
-1.55242e-06
-1.2252e-06
-2.22608e-06
-1.15599e-06
-3.0504e-06
-1.08867e-06
-4.1479e-06
-9.58642e-07
-5.66192e-06
-6.65321e-07
-7.55986e-06
-9.02738e-06
-2.22727e-07
4.42732e-06
-4.28646e-07
5.26997e-06
-5.88018e-07
5.29157e-06
-7.09715e-07
4.91494e-06
-8.02922e-07
4.30737e-06
-8.73311e-07
3.60826e-06
-9.26264e-07
2.88896e-06
-9.6338e-07
2.18474e-06
-9.84026e-07
1.50756e-06
-9.86189e-07
8.57041e-07
-9.67845e-07
2.2721e-07
-9.28626e-07
-3.88602e-07
-8.72173e-07
-9.98208e-07
-8.09091e-07
-1.6155e-06
-7.58059e-07
-2.27711e-06
-7.36948e-07
-3.07151e-06
-7.37249e-07
-4.1476e-06
-6.98568e-07
-5.7006e-06
-5.45937e-07
-7.71249e-06
-9.57332e-06
-3.52293e-08
4.46255e-06
-1.12485e-07
5.34723e-06
-1.66695e-07
5.34578e-06
-2.14465e-07
4.96271e-06
-2.55344e-07
4.34825e-06
-2.93439e-07
3.64635e-06
-3.28747e-07
2.92427e-06
-3.59825e-07
2.21582e-06
-3.84274e-07
1.53201e-06
-3.9924e-07
8.72007e-07
-4.02213e-07
2.30182e-07
-3.92066e-07
-3.98749e-07
-3.71443e-07
-1.01883e-06
-3.49532e-07
-1.63741e-06
-3.44244e-07
-2.2824e-06
-3.73749e-07
-3.042e-06
-4.4364e-07
-4.07771e-06
-4.88401e-07
-5.65584e-06
-4.35098e-07
-7.76579e-06
-1.00084e-05
1.37316e-07
4.32523e-06
1.95248e-07
5.2893e-06
2.43981e-07
5.29705e-06
2.66179e-07
4.94051e-06
2.76185e-07
4.33824e-06
2.7367e-07
3.64887e-06
2.61129e-07
2.93681e-06
2.4151e-07
2.23544e-06
2.17816e-07
1.5557e-06
1.92883e-07
8.9694e-07
1.68914e-07
2.54151e-07
1.47048e-07
-3.76884e-07
1.25521e-07
-9.97303e-07
9.74181e-08
-1.60931e-06
4.80947e-08
-2.23307e-06
-4.81284e-08
-2.94578e-06
-1.81509e-07
-3.94433e-06
-3.09069e-07
-5.52828e-06
-3.57761e-07
-7.7171e-06
-1.03662e-05
2.9292e-07
4.03231e-06
4.80412e-07
5.1018e-06
6.29622e-07
5.14784e-06
7.28819e-07
4.84132e-06
7.96519e-07
4.27054e-06
8.37097e-07
3.60829e-06
8.54919e-07
2.91898e-06
8.53851e-07
2.23651e-06
8.36848e-07
1.57271e-06
8.05908e-07
9.2788e-07
7.62118e-07
2.97941e-07
7.0594e-07
-3.20706e-07
6.3646e-07
-9.27822e-07
5.49589e-07
-1.52244e-06
4.34402e-07
-2.11789e-06
2.75931e-07
-2.78731e-06
7.35689e-08
-3.74197e-06
-1.50222e-07
-5.30449e-06
-2.83252e-07
-7.58407e-06
-1.06494e-05
4.4322e-07
3.58909e-06
7.53106e-07
4.79192e-06
9.88629e-07
4.91231e-06
1.17051e-06
4.65944e-06
1.30451e-06
4.13655e-06
1.39788e-06
3.51491e-06
1.45567e-06
2.8612e-06
1.48183e-06
2.21034e-06
1.47869e-06
1.57585e-06
1.44712e-06
9.5945e-07
1.38659e-06
3.58471e-07
1.29617e-06
-2.30279e-07
1.17548e-06
-8.07135e-07
1.02313e-06
-1.37009e-06
8.35001e-07
-1.92975e-06
6.00283e-07
-2.55259e-06
3.04899e-07
-3.44658e-06
-2.13867e-08
-4.9782e-06
-2.05869e-07
-7.39959e-06
-1.08553e-05
5.57245e-07
3.03185e-06
9.71408e-07
4.37775e-06
1.29813e-06
4.5856e-06
1.57488e-06
4.38268e-06
1.78893e-06
3.9225e-06
1.94891e-06
3.35493e-06
2.05895e-06
2.75116e-06
2.12246e-06
2.14682e-06
2.14115e-06
1.55716e-06
2.11491e-06
9.85694e-07
2.04176e-06
4.31622e-07
1.91857e-06
-1.07088e-07
1.7462e-06
-6.34771e-07
1.52529e-06
-1.14918e-06
1.25829e-06
-1.66275e-06
9.40974e-07
-2.23528e-06
5.61969e-07
-3.06758e-06
1.79488e-07
-4.59572e-06
-6.18046e-08
-7.1583e-06
-1.09171e-05
6.40526e-07
2.39132e-06
1.14457e-06
3.87371e-06
1.56531e-06
4.16486e-06
1.93469e-06
4.0133e-06
2.23839e-06
3.61879e-06
2.47674e-06
3.11658e-06
2.65078e-06
2.57712e-06
2.76224e-06
2.03537e-06
2.81153e-06
1.50786e-06
2.79766e-06
9.99573e-07
2.71798e-06
5.11303e-07
2.56678e-06
4.41062e-08
2.34661e-06
-4.14603e-07
2.05974e-06
-8.62309e-07
1.71303e-06
-1.31603e-06
1.31197e-06
-1.83422e-06
8.52473e-07
-2.60808e-06
4.01761e-07
-4.14501e-06
8.53891e-08
-6.84192e-06
-1.08317e-05
6.08124e-07
1.7832e-06
1.17211e-06
3.30973e-06
1.70424e-06
3.63273e-06
2.19043e-06
3.52711e-06
2.60646e-06
3.20277e-06
2.94388e-06
2.77916e-06
3.19962e-06
2.32138e-06
3.37338e-06
1.86161e-06
3.46463e-06
1.41662e-06
3.4721e-06
9.921e-07
3.39323e-06
5.90174e-07
3.22923e-06
2.08106e-07
2.97242e-06
-1.57795e-07
2.63393e-06
-5.23818e-07
2.21958e-06
-9.01681e-07
1.74399e-06
-1.35863e-06
1.2119e-06
-2.076e-06
6.82716e-07
-3.61583e-06
2.56067e-07
-6.41527e-06
-1.05756e-05
4.65706e-07
1.31749e-06
1.11216e-06
2.66327e-06
1.75712e-06
2.98777e-06
2.36063e-06
2.9236e-06
2.89093e-06
2.67247e-06
3.33206e-06
2.33802e-06
3.67604e-06
1.97741e-06
3.91983e-06
1.61781e-06
4.06294e-06
1.27351e-06
4.10529e-06
9.49749e-07
4.04735e-06
6.48116e-07
3.89105e-06
3.64409e-07
3.63271e-06
1.00542e-07
3.28209e-06
-1.73201e-07
2.83993e-06
-4.59521e-07
2.32402e-06
-8.42718e-07
1.74016e-06
-1.49214e-06
1.11902e-06
-2.99468e-06
5.1694e-07
-5.81319e-06
-1.00587e-05
-1.11381e-08
1.32863e-06
6.55383e-07
1.99675e-06
1.4578e-06
2.18536e-06
2.23755e-06
2.14384e-06
2.93086e-06
1.97916e-06
3.51409e-06
1.75479e-06
3.98179e-06
1.50971e-06
4.33155e-06
1.26806e-06
4.56673e-06
1.03832e-06
4.6911e-06
8.25378e-07
4.70929e-06
6.29927e-07
4.62512e-06
4.48583e-07
4.44358e-06
2.8208e-07
4.17755e-06
9.28322e-08
3.80421e-06
-8.61836e-08
3.33816e-06
-3.76669e-07
2.7367e-06
-8.9068e-07
2.02014e-06
-2.27812e-06
1.04185e-06
-4.83491e-06
-9.01686e-06
-5.93887e-07
1.92252e-06
2.21372e-07
1.18149e-06
1.27273e-06
1.134e-06
2.27636e-06
1.14022e-06
3.16551e-06
1.09001e-06
3.92895e-06
9.91357e-07
4.56398e-06
8.74678e-07
5.07349e-06
7.58547e-07
5.46223e-06
6.4958e-07
5.73914e-06
5.48465e-07
5.91417e-06
4.54896e-07
5.99438e-06
3.68372e-07
5.99147e-06
2.84997e-07
5.88755e-06
1.96745e-07
5.6964e-06
1.04971e-07
5.4087e-06
-8.89735e-08
4.93232e-06
-4.14295e-07
4.14738e-06
-1.49318e-06
2.46194e-06
-3.14947e-06
-6.55491e-06
1.92252e-06
3.104e-06
4.238e-06
5.37822e-06
6.46823e-06
7.45958e-06
8.33426e-06
9.09281e-06
9.74239e-06
1.02909e-05
1.07457e-05
1.11141e-05
1.13991e-05
1.15959e-05
1.17008e-05
1.16119e-05
1.11976e-05
9.70438e-06
6.55491e-06
)
;

boundaryField
{
    movingWall
    {
        type            calculated;
        value           uniform 0;
    }
    fixedWalls
    {
        type            calculated;
        value           uniform 0;
    }
    frontAndBack
    {
        type            empty;
        value           nonuniform 0();
    }
}


// ************************************************************************* //
