/*--------------------------------*- C++ -*----------------------------------*\
| =========                 |                                                 |
| \\      /  F ield         | OpenFOAM: The Open Source CFD Toolbox           |
|  \\    /   O peration     | Version:  5.0                                   |
|   \\  /    A nd           | Web:      www.OpenFOAM.org                      |
|    \\/     M anipulation  |                                                 |
\*---------------------------------------------------------------------------*/
FoamFile
{
    version     2.0;
    format      ascii;
    class       volVectorField;
    location    "4.5";
    object      U;
}
// * * * * * * * * * * * * * * * * * * * * * * * * * * * * * * * * * * * * * //

dimensions      [0 1 -1 0 0 0 0];

internalField   nonuniform List<vector> 
400
(
(0.00172243 -0.00212461 0)
(0.00409345 -0.00113289 0)
(-0.00156398 0.000628064 0)
(-0.0103668 0.0045324 0)
(-0.0350546 0.0114621 0)
(-0.0597441 0.011091 0)
(-0.0800141 0.00967972 0)
(-0.0974217 0.00781477 0)
(-0.110436 0.00604314 0)
(-0.120484 0.00423502 0)
(-0.126797 0.00242881 0)
(-0.129729 0.000796661 0)
(-0.129921 -0.00174777 0)
(-0.12521 -0.00392772 0)
(-0.116732 -0.00693907 0)
(-0.102289 -0.00944179 0)
(-0.0827957 -0.0123143 0)
(-0.0577732 -0.0138878 0)
(-0.0300071 -0.0122197 0)
(-0.00609631 -0.00325077 0)
(-0.000109741 -0.0043352 0)
(-0.00641257 0.0045103 0)
(-0.0227298 0.016868 0)
(-0.0475559 0.030648 0)
(-0.0682907 0.0329066 0)
(-0.0863714 0.0306342 0)
(-0.100827 0.026567 0)
(-0.112782 0.0219019 0)
(-0.12171 0.0168775 0)
(-0.129081 0.0116547 0)
(-0.133279 0.00682381 0)
(-0.135149 0.00189246 0)
(-0.133832 -0.00340598 0)
(-0.129604 -0.00940431 0)
(-0.12173 -0.0166117 0)
(-0.109651 -0.0252891 0)
(-0.0927568 -0.0348198 0)
(-0.0709943 -0.0431251 0)
(-0.0440006 -0.0445678 0)
(-0.0154011 -0.0273268 0)
(-0.00454476 0.00492895 0)
(-0.021021 0.0239962 0)
(-0.0424742 0.0404669 0)
(-0.0620565 0.0485867 0)
(-0.0770867 0.0480032 0)
(-0.0897862 0.0435541 0)
(-0.0996663 0.036925 0)
(-0.107797 0.0295248 0)
(-0.113813 0.0222485 0)
(-0.117361 0.015407 0)
(-0.118958 0.00833629 0)
(-0.118811 0.00114912 0)
(-0.11709 -0.00654778 0)
(-0.113285 -0.0150232 0)
(-0.107041 -0.0250015 0)
(-0.0977896 -0.0368589 0)
(-0.0847994 -0.0507749 0)
(-0.0675963 -0.0655805 0)
(-0.0446981 -0.0755176 0)
(-0.0192325 -0.0635401 0)
(-0.00824941 0.0220036 0)
(-0.0277002 0.0439797 0)
(-0.0470609 0.0580012 0)
(-0.0619946 0.0626258 0)
(-0.0728686 0.0596793 0)
(-0.0817028 0.0531764 0)
(-0.0881818 0.0446861 0)
(-0.0930761 0.0356027 0)
(-0.0961044 0.0264521 0)
(-0.0977915 0.0175239 0)
(-0.098185 0.00883859 0)
(-0.0974148 0.000168274 0)
(-0.0954499 -0.00898579 0)
(-0.0921104 -0.0191638 0)
(-0.0872887 -0.0311331 0)
(-0.0805724 -0.0455709 0)
(-0.0711337 -0.0627933 0)
(-0.0579501 -0.0818721 0)
(-0.0390211 -0.0981032 0)
(-0.0180384 -0.0946704 0)
(-0.00922271 0.0395974 0)
(-0.0274829 0.0614205 0)
(-0.0434335 0.0723542 0)
(-0.0547461 0.0737418 0)
(-0.0628501 0.0683639 0)
(-0.0690343 0.0597837 0)
(-0.0732669 0.0495376 0)
(-0.0761782 0.0388478 0)
(-0.0777611 0.0282816 0)
(-0.0783327 0.018142 0)
(-0.0778958 0.00834381 0)
(-0.0765912 -0.00135523 0)
(-0.074453 -0.0114132 0)
(-0.0715103 -0.0225152 0)
(-0.0677768 -0.0355768 0)
(-0.0630507 -0.0516146 0)
(-0.0566522 -0.0714527 0)
(-0.0470554 -0.094843 0)
(-0.0320007 -0.116959 0)
(-0.0163262 -0.120749 0)
(-0.00795617 0.0556442 0)
(-0.0238402 0.0767478 0)
(-0.0359216 0.0840564 0)
(-0.0446954 0.0824635 0)
(-0.0508021 0.0747735 0)
(-0.0552146 0.0643046 0)
(-0.0580861 0.0525426 0)
(-0.0599166 0.0406119 0)
(-0.0607633 0.0290263 0)
(-0.060786 0.0179726 0)
(-0.0599905 0.00732715 0)
(-0.058483 -0.0031384 0)
(-0.0563541 -0.0138214 0)
(-0.0537401 -0.0254197 0)
(-0.0507737 -0.0389402 0)
(-0.047434 -0.0556639 0)
(-0.0432999 -0.0768544 0)
(-0.0369603 -0.103072 0)
(-0.0268098 -0.131745 0)
(-0.0116062 -0.142285 0)
(-0.00660837 0.0696706 0)
(-0.0185595 0.0888377 0)
(-0.0273217 0.0932848 0)
(-0.0340443 0.0891703 0)
(-0.0385009 0.0795213 0)
(-0.0416912 0.0674956 0)
(-0.04376 0.0545686 0)
(-0.0450544 0.0417115 0)
(-0.0456159 0.0293287 0)
(-0.0455179 0.0175185 0)
(-0.0447549 0.00616705 0)
(-0.0433734 -0.00493184 0)
(-0.0414555 -0.0161251 0)
(-0.0391799 -0.0280262 0)
(-0.0367872 -0.0416728 0)
(-0.0344087 -0.058597 0)
(-0.0318347 -0.0805034 0)
(-0.0276312 -0.108852 0)
(-0.0218236 -0.141908 0)
(-0.00963294 -0.160132 0)
(-0.004385 0.0801187 0)
(-0.0127608 0.0979346 0)
(-0.0187693 0.100181 0)
(-0.0235907 0.0940792 0)
(-0.0266673 0.0829946 0)
(-0.028957 0.0698525 0)
(-0.0305115 0.0560962 0)
(-0.0315448 0.0425593 0)
(-0.0320694 0.0295613 0)
(-0.0320936 0.0171456 0)
(-0.0315828 0.00519841 0)
(-0.0305366 -0.00646069 0)
(-0.0290066 -0.0181059 0)
(-0.0271665 -0.0302236 0)
(-0.0253243 -0.0437843 0)
(-0.0237612 -0.0605002 0)
(-0.0224929 -0.0825293 0)
(-0.0201163 -0.112324 0)
(-0.017728 -0.148893 0)
(-0.00675873 -0.174611 0)
(-0.00257462 0.0867437 0)
(-0.00713174 0.103691 0)
(-0.0106669 0.104583 0)
(-0.0136256 0.0973547 0)
(-0.0154841 0.0853998 0)
(-0.017008 0.0715748 0)
(-0.0181408 0.057303 0)
(-0.0189968 0.0433244 0)
(-0.0195523 0.0298984 0)
(-0.0197717 0.0170304 0)
(-0.019597 0.00460232 0)
(-0.0189966 -0.00753477 0)
(-0.0179969 -0.0195734 0)
(-0.0167466 -0.0318581 0)
(-0.0155599 -0.0452103 0)
(-0.0147871 -0.0614294 0)
(-0.0147697 -0.0832062 0)
(-0.0138411 -0.113992 0)
(-0.0145816 -0.153154 0)
(-0.00521995 -0.18651 0)
(0.000115036 0.0897207 0)
(-0.00181281 0.106983 0)
(-0.00305191 0.106988 0)
(-0.00416758 0.0991106 0)
(-0.00487813 0.0868037 0)
(-0.00562897 0.072697 0)
(-0.00630434 0.0582083 0)
(-0.00693932 0.0440213 0)
(-0.0074797 0.0303585 0)
(-0.0078664 0.0172036 0)
(-0.00803491 0.00443994 0)
(-0.00793906 -0.00805249 0)
(-0.00758773 -0.0203852 0)
(-0.00710108 -0.0327647 0)
(-0.00676782 -0.0458339 0)
(-0.00689863 -0.0613688 0)
(-0.00835308 -0.0825525 0)
(-0.00844657 -0.113959 0)
(-0.0121508 -0.155022 0)
(-0.00323634 -0.19621 0)
(0.00194101 0.0886461 0)
(0.00317004 0.107022 0)
(0.00421192 0.10695 0)
(0.00488381 0.0993744 0)
(0.0053118 0.0871238 0)
(0.00542305 0.0731337 0)
(0.00531582 0.0587246 0)
(0.0050175 0.0445656 0)
(0.0045983 0.0308727 0)
(0.00412314 0.017627 0)
(0.00364802 0.00472137 0)
(0.00321236 -0.0079391 0)
(0.00281363 -0.0203977 0)
(0.00237055 -0.0327385 0)
(0.0016435 -0.0454345 0)
(0.000467107 -0.0601543 0)
(-0.00272918 -0.0805703 0)
(-0.00353483 -0.112193 0)
(-0.0103233 -0.155105 0)
(-0.00178628 -0.204143 0)
(0.00367443 0.0851337 0)
(0.00765523 0.105113 0)
(0.0110033 0.105239 0)
(0.0133714 0.0984434 0)
(0.0151734 0.0864861 0)
(0.0162942 0.0728469 0)
(0.0169214 0.0587471 0)
(0.0171185 0.0448382 0)
(0.0169595 0.031337 0)
(0.0165019 0.0182338 0)
(0.0157833 0.00543481 0)
(0.0148209 -0.00713592 0)
(0.013604 -0.0194807 0)
(0.0120884 -0.0315988 0)
(0.0101232 -0.0438112 0)
(0.00763417 -0.0576409 0)
(0.00253428 -0.0771737 0)
(0.00133326 -0.10854 0)
(-0.00901792 -0.153358 0)
(0.00028984 -0.210393 0)
(0.00534355 0.0776091 0)
(0.0119989 0.0997102 0)
(0.0175139 0.101007 0)
(0.0213419 0.0954915 0)
(0.0247115 0.0844671 0)
(0.0270172 0.0715566 0)
(0.0285689 0.058062 0)
(0.0294454 0.0446636 0)
(0.0297092 0.0316123 0)
(0.0293975 0.0189275 0)
(0.0285212 0.0065371 0)
(0.0270636 -0.0056203 0)
(0.0249922 -0.0175362 0)
(0.0223033 -0.029179 0)
(0.0189059 -0.0407647 0)
(0.0148937 -0.0536938 0)
(0.00791993 -0.0721882 0)
(0.0063455 -0.103149 0)
(-0.00811245 -0.15038 0)
(0.00279252 -0.215157 0)
(0.00676759 0.0679066 0)
(0.0154784 0.0933034 0)
(0.0228138 0.0961297 0)
(0.0285732 0.091249 0)
(0.0335969 0.0812885 0)
(0.0373878 0.0692589 0)
(0.0401409 0.0565629 0)
(0.0419261 0.0439062 0)
(0.0427963 0.0315706 0)
(0.042772 0.019602 0)
(0.0418395 0.00795417 0)
(0.0399445 -0.00342668 0)
(0.0370278 -0.0145301 0)
(0.0331328 -0.0253748 0)
(0.0281787 -0.0361542 0)
(0.0225906 -0.048115 0)
(0.0137455 -0.0653796 0)
(0.0115575 -0.0960374 0)
(-0.00718265 -0.145805 0)
(0.00667412 -0.218499 0)
(0.00765657 0.0549369 0)
(0.018469 0.0826335 0)
(0.0273522 0.0877616 0)
(0.0348983 0.0843851 0)
(0.0416539 0.0759434 0)
(0.0471456 0.0652546 0)
(0.0513537 0.0537761 0)
(0.0542823 0.0422436 0)
(0.0559566 0.0309878 0)
(0.0563803 0.0200993 0)
(0.0555189 0.00957284 0)
(0.053294 -0.000650816 0)
(0.0496111 -0.0105197 0)
(0.0445979 -0.0201941 0)
(0.0380772 -0.029933 0)
(0.0309499 -0.0409024 0)
(0.0201548 -0.057081 0)
(0.0173298 -0.0879057 0)
(-0.00566752 -0.140957 0)
(0.0116582 -0.220722 0)
(0.00699774 0.0418735 0)
(0.0185544 0.0733188 0)
(0.0291424 0.079612 0)
(0.0388434 0.0768612 0)
(0.0478524 0.0694566 0)
(0.0554775 0.0600061 0)
(0.0615319 0.0498489 0)
(0.0659288 0.0396628 0)
(0.0686616 0.0297849 0)
(0.0697378 0.0203209 0)
(0.0690982 0.0112903 0)
(0.0667606 0.00262367 0)
(0.0625433 -0.00565434 0)
(0.0567245 -0.0138354 0)
(0.0488411 -0.0222532 0)
(0.040514 -0.0321219 0)
(0.0277516 -0.0472371 0)
(0.0245997 -0.0785088 0)
(-0.00323938 -0.134743 0)
(0.0183848 -0.221339 0)
(0.00344846 0.0287444 0)
(0.0169286 0.0578459 0)
(0.0290593 0.0658791 0)
(0.0410223 0.0647738 0)
(0.0523156 0.0592758 0)
(0.062163 0.0517917 0)
(0.0701793 0.0436216 0)
(0.0761888 0.0353798 0)
(0.0801508 0.0274164 0)
(0.082108 0.0198562 0)
(0.0819999 0.0127467 0)
(0.0799758 0.00600793 0)
(0.0757284 -0.00039354 0)
(0.0698916 -0.00683456 0)
(0.0613699 -0.0135309 0)
(0.0527729 -0.0220026 0)
(0.0384524 -0.035827 0)
(0.0353253 -0.0673127 0)
(0.00132558 -0.126334 0)
(0.0276049 -0.216643 0)
(-0.00582489 0.0243119 0)
(0.00583679 0.0500559 0)
(0.0213982 0.0550612 0)
(0.0368319 0.0536056 0)
(0.0514965 0.0489706 0)
(0.064378 0.0429496 0)
(0.0750604 0.0365739 0)
(0.0833867 0.0303169 0)
(0.0893068 0.02439 0)
(0.0930037 0.0188617 0)
(0.0944356 0.0137775 0)
(0.0939299 0.00908245 0)
(0.091032 0.00478324 0)
(0.0869341 0.000421012 0)
(0.079621 -0.00418566 0)
(0.0727892 -0.0108629 0)
(0.0580833 -0.023075 0)
(0.0548308 -0.0537514 0)
(0.0137755 -0.112718 0)
(0.043249 -0.196721 0)
(-0.0136702 0.0318415 0)
(-0.0063615 0.0247497 0)
(0.0152699 0.0274273 0)
(0.0356333 0.0283675 0)
(0.0542723 0.0270708 0)
(0.0708754 0.0244433 0)
(0.0849988 0.021274 0)
(0.0965747 0.018109 0)
(0.105671 0.0150591 0)
(0.112393 0.0122523 0)
(0.116922 0.0096651 0)
(0.119532 0.00722965 0)
(0.12007 0.00504418 0)
(0.119254 0.00232141 0)
(0.11543 -0.000166607 0)
(0.111617 -0.00573863 0)
(0.0996354 -0.0150488 0)
(0.0963371 -0.0413029 0)
(0.0526249 -0.0879643 0)
(0.0754044 -0.150841 0)
(0.0415978 0.0396347 0)
(0.0472996 0.0285326 0)
(0.07002 0.0240492 0)
(0.0957893 0.0225846 0)
(0.11826 0.0213396 0)
(0.13867 0.0196394 0)
(0.157415 0.0177108 0)
(0.173846 0.0157645 0)
(0.188363 0.0140216 0)
(0.200335 0.0124122 0)
(0.21074 0.0109604 0)
(0.218648 0.00971202 0)
(0.225454 0.00838372 0)
(0.229597 0.00736385 0)
(0.233024 0.00573581 0)
(0.232382 0.00347719 0)
(0.226608 0.00220182 0)
(0.214035 -0.0079396 0)
(0.165925 -0.0134232 0)
(0.145207 -0.0686704 0)
)
;

boundaryField
{
    movingWall
    {
        type            fixedValue;
        value           uniform (1 0 0);
    }
    fixedWalls
    {
        type            noSlip;
    }
    frontAndBack
    {
        type            empty;
    }
}


// ************************************************************************* //
