/*--------------------------------*- C++ -*----------------------------------*\
| =========                 |                                                 |
| \\      /  F ield         | OpenFOAM: The Open Source CFD Toolbox           |
|  \\    /   O peration     | Version:  5.0                                   |
|   \\  /    A nd           | Web:      www.OpenFOAM.org                      |
|    \\/     M anipulation  |                                                 |
\*---------------------------------------------------------------------------*/
FoamFile
{
    version     2.0;
    format      ascii;
    class       volScalarField;
    location    "7.5";
    object      k;
}
// * * * * * * * * * * * * * * * * * * * * * * * * * * * * * * * * * * * * * //

dimensions      [0 2 -2 0 0 0 0];

internalField   nonuniform List<scalar> 
400
(
4.99357e-10
1.96593e-09
1.17209e-08
6.24438e-08
1.63829e-07
2.75149e-07
3.75402e-07
4.68499e-07
5.54648e-07
6.46494e-07
7.4758e-07
8.83771e-07
1.07196e-06
1.18987e-06
1.2307e-06
1.21863e-06
9.22248e-07
4.95722e-07
2.41638e-07
1.09594e-07
5.62104e-09
5.21544e-08
1.56021e-07
4.54379e-07
1.14431e-06
2.44085e-06
4.28113e-06
6.51013e-06
8.60651e-06
1.06641e-05
1.21102e-05
1.31151e-05
1.34952e-05
1.35454e-05
1.24763e-05
1.09781e-05
8.02169e-06
3.69126e-06
1.42196e-06
4.81625e-07
4.30887e-08
2.84405e-07
8.01005e-07
2.2906e-06
6.13311e-06
1.33801e-05
2.42867e-05
3.72007e-05
4.99996e-05
5.64139e-05
5.9584e-05
6.05258e-05
5.74616e-05
5.44559e-05
4.75924e-05
4.03604e-05
3.07912e-05
1.50837e-05
4.53428e-06
1.06626e-06
1.26171e-07
8.5393e-07
2.60087e-06
7.96524e-06
2.21497e-05
5.0665e-05
8.18572e-05
9.74304e-05
0.000104643
0.000106848
0.00010556
0.000101879
9.93599e-05
9.7273e-05
9.61132e-05
9.05207e-05
7.47901e-05
4.35186e-05
1.15901e-05
1.6962e-06
3.04072e-07
2.15627e-06
7.08784e-06
2.2362e-05
5.65659e-05
9.43594e-05
0.000111605
0.000118356
0.000120226
0.000115957
0.000110436
0.000106535
0.000105592
0.000106311
0.000111768
0.000115571
0.000114031
8.21742e-05
2.31459e-05
2.32171e-06
5.15212e-07
4.06772e-06
1.36955e-05
4.04385e-05
8.81182e-05
0.000112435
0.000121959
0.000124366
0.000122269
0.000114211
0.000107078
0.000103347
0.000102402
0.000104692
0.000114187
0.000125835
0.000132944
0.00011659
3.91647e-05
2.91512e-06
7.65791e-07
6.41502e-06
2.16596e-05
5.90216e-05
0.000102854
0.000119552
0.000124557
0.000124665
0.000118244
0.000104612
9.522e-05
9.08793e-05
8.96638e-05
9.46238e-05
0.000111974
0.000127931
0.000141834
0.000134924
5.65964e-05
3.4331e-06
8.30323e-07
8.09231e-06
2.66885e-05
6.91916e-05
0.000110619
0.000122945
0.000125131
0.000122289
0.000108392
9.42878e-05
8.35995e-05
7.73124e-05
7.52364e-05
8.0074e-05
0.000100889
0.000127455
0.000145395
0.000150539
7.22606e-05
3.88151e-06
7.87042e-07
8.92484e-06
2.99917e-05
7.8276e-05
0.000115598
0.000124168
0.000124707
0.000116034
9.97597e-05
8.62024e-05
7.45208e-05
6.60202e-05
6.27098e-05
6.73067e-05
8.80917e-05
0.000124915
0.000145232
0.000157905
8.52438e-05
4.27485e-06
6.51846e-07
8.7087e-06
2.96518e-05
7.85243e-05
0.00011918
0.000125953
0.00012355
0.00011132
9.43333e-05
7.99581e-05
6.77319e-05
5.81008e-05
5.47362e-05
6.0602e-05
7.84111e-05
0.000121879
0.000137762
0.000162862
9.56698e-05
4.63134e-06
5.25604e-07
8.02278e-06
2.79715e-05
7.63087e-05
0.000118671
0.000125825
0.000121519
0.000107429
8.97947e-05
7.47453e-05
6.23331e-05
5.33789e-05
5.21894e-05
5.79751e-05
7.40429e-05
0.000120182
0.000133514
0.000164443
0.00010126
4.96638e-06
4.23577e-07
6.6177e-06
2.41423e-05
6.9753e-05
0.000115488
0.000124849
0.000121269
0.000108389
9.06199e-05
7.43535e-05
6.06059e-05
5.25471e-05
5.2361e-05
5.76244e-05
7.29632e-05
0.000117801
0.000128609
0.000164786
0.000103646
5.34348e-06
3.27805e-07
4.82219e-06
1.88745e-05
5.89053e-05
0.0001075
0.00012128
0.000119737
0.000111577
9.42387e-05
7.84772e-05
6.54081e-05
5.7332e-05
5.75773e-05
6.29453e-05
7.76872e-05
0.000117315
0.000126295
0.000163074
0.000103749
5.78081e-06
2.3315e-07
3.09438e-06
1.30182e-05
4.04297e-05
9.39777e-05
0.000114162
0.000115443
0.000111637
0.000102259
8.91127e-05
7.68551e-05
6.93725e-05
7.00261e-05
7.60785e-05
8.94316e-05
0.000117337
0.000122415
0.000156468
9.53993e-05
6.20353e-06
1.40435e-07
1.70493e-06
7.91145e-06
2.48369e-05
6.73981e-05
9.91715e-05
0.000107202
0.0001074
0.000104758
0.00010104
9.46497e-05
8.95531e-05
9.01811e-05
9.41095e-05
0.000100014
0.000114982
0.000119294
0.000146727
8.58019e-05
6.34929e-06
6.34801e-08
8.29433e-07
4.16937e-06
1.35145e-05
3.88665e-05
7.08146e-05
8.9105e-05
9.62385e-05
9.91377e-05
9.97619e-05
9.97986e-05
0.000100456
0.000100423
0.000101216
0.000103149
0.000109374
0.000112566
0.000131696
7.22802e-05
6.3482e-06
2.13691e-08
3.96877e-07
2.0254e-06
6.49456e-06
1.71635e-05
3.91879e-05
5.68633e-05
6.89358e-05
7.7645e-05
8.4933e-05
8.86779e-05
9.29824e-05
9.57699e-05
9.86539e-05
9.83559e-05
9.7699e-05
0.000100725
0.000110072
5.42285e-05
5.6252e-06
1.63359e-08
2.15333e-07
9.62125e-07
2.91323e-06
7.03973e-06
1.64925e-05
2.69492e-05
3.61022e-05
4.2102e-05
4.67529e-05
5.1404e-05
5.41162e-05
5.65661e-05
5.86817e-05
6.25084e-05
7.02083e-05
8.9345e-05
8.54469e-05
3.82835e-05
4.84555e-06
4.58267e-08
2.53191e-07
7.7407e-07
1.72983e-06
3.74062e-06
6.18887e-06
1.11922e-05
1.44438e-05
1.92611e-05
2.24708e-05
2.74156e-05
3.21639e-05
3.89277e-05
4.79e-05
5.84396e-05
7.50713e-05
9.1986e-05
7.33585e-05
2.17147e-05
3.14715e-06
1.80849e-08
4.24109e-08
1.23819e-07
2.14301e-07
4.52728e-07
6.59356e-07
1.16923e-06
1.40226e-06
1.88608e-06
2.04746e-06
2.39001e-06
2.50551e-06
2.74733e-06
2.95713e-06
3.50352e-06
3.39223e-06
3.40874e-06
3.33561e-06
2.95683e-06
1.88871e-06
)
;

boundaryField
{
    movingWall
    {
        type            kqRWallFunction;
        value           nonuniform List<scalar> 
20
(
1.80849e-08
4.24109e-08
1.23819e-07
2.14301e-07
4.52728e-07
6.59356e-07
1.16923e-06
1.40226e-06
1.88608e-06
2.04746e-06
2.39001e-06
2.50551e-06
2.74733e-06
2.95713e-06
3.50352e-06
3.39223e-06
3.40874e-06
3.33561e-06
2.95683e-06
1.88871e-06
)
;
    }
    fixedWalls
    {
        type            kqRWallFunction;
        value           nonuniform List<scalar> 
60
(
4.99357e-10
5.62104e-09
4.30887e-08
1.26171e-07
3.04072e-07
5.15212e-07
7.65791e-07
8.30323e-07
7.87042e-07
6.51846e-07
5.25604e-07
4.23577e-07
3.27805e-07
2.3315e-07
1.40435e-07
6.34801e-08
2.13691e-08
1.63359e-08
4.58267e-08
1.80849e-08
1.09594e-07
4.81625e-07
1.06626e-06
1.6962e-06
2.32171e-06
2.91512e-06
3.4331e-06
3.88151e-06
4.27485e-06
4.63134e-06
4.96638e-06
5.34348e-06
5.78081e-06
6.20353e-06
6.34929e-06
6.3482e-06
5.6252e-06
4.84555e-06
3.14715e-06
1.88871e-06
4.99357e-10
1.96593e-09
1.17209e-08
6.24438e-08
1.63829e-07
2.75149e-07
3.75402e-07
4.68499e-07
5.54648e-07
6.46494e-07
7.4758e-07
8.83771e-07
1.07196e-06
1.18987e-06
1.2307e-06
1.21863e-06
9.22248e-07
4.95722e-07
2.41638e-07
1.09594e-07
)
;
    }
    frontAndBack
    {
        type            empty;
    }
}


// ************************************************************************* //
