/*--------------------------------*- C++ -*----------------------------------*\
| =========                 |                                                 |
| \\      /  F ield         | OpenFOAM: The Open Source CFD Toolbox           |
|  \\    /   O peration     | Version:  5.0                                   |
|   \\  /    A nd           | Web:      www.OpenFOAM.org                      |
|    \\/     M anipulation  |                                                 |
\*---------------------------------------------------------------------------*/
FoamFile
{
    version     2.0;
    format      ascii;
    class       volScalarField;
    location    "7.5";
    object      nut;
}
// * * * * * * * * * * * * * * * * * * * * * * * * * * * * * * * * * * * * * //

dimensions      [0 2 -1 0 0 0 0];

internalField   nonuniform List<scalar> 
400
(
3.90122e-12
1.53589e-11
9.15693e-11
4.87842e-10
1.27991e-09
2.1496e-09
2.93283e-09
3.66015e-09
4.33319e-09
5.05073e-09
5.84047e-09
6.90446e-09
8.37467e-09
9.29588e-09
9.61487e-09
9.52057e-09
7.20506e-09
3.87283e-09
1.88779e-09
8.56202e-10
4.39144e-11
9.54954e-10
2.01278e-09
5.39697e-09
1.44062e-08
3.61714e-08
7.41186e-08
1.36542e-07
2.05012e-07
2.90869e-07
3.52735e-07
3.93241e-07
3.94377e-07
3.70294e-07
3.15671e-07
2.46218e-07
1.52637e-07
5.60541e-08
1.55419e-08
3.76269e-09
3.36631e-10
5.43517e-09
1.37712e-08
4.1031e-08
1.42481e-07
3.92096e-07
8.7597e-07
1.53967e-06
2.26244e-06
2.67739e-06
2.8865e-06
2.94563e-06
2.70646e-06
2.41709e-06
1.89648e-06
1.35878e-06
8.10796e-07
2.84675e-07
5.41528e-08
8.33017e-09
9.8571e-10
1.79097e-08
5.63368e-08
2.11369e-07
8.29959e-07
2.35231e-06
4.64736e-06
6.2112e-06
7.51024e-06
8.16022e-06
8.4244e-06
8.24868e-06
7.96829e-06
7.21213e-06
6.3279e-06
4.8366e-06
2.92312e-06
1.1061e-06
1.59846e-07
1.32516e-08
2.37556e-09
5.07179e-08
1.91501e-07
8.3511e-07
3.00252e-06
6.20305e-06
9.16473e-06
1.10605e-05
1.29139e-05
1.34063e-05
1.33745e-05
1.30992e-05
1.26765e-05
1.16582e-05
1.05814e-05
8.59934e-06
5.8262e-06
2.55508e-06
3.56795e-07
1.81384e-08
4.02509e-09
1.06437e-07
4.5178e-07
1.97869e-06
6.11884e-06
9.76163e-06
1.34068e-05
1.56868e-05
1.78021e-05
1.79295e-05
1.75958e-05
1.72431e-05
1.66505e-05
1.56033e-05
1.46112e-05
1.27685e-05
9.07923e-06
4.57152e-06
6.8442e-07
2.27744e-08
5.98274e-09
1.86445e-07
8.34513e-07
3.54714e-06
8.71582e-06
1.27754e-05
1.69745e-05
1.95874e-05
2.13923e-05
2.04203e-05
1.94188e-05
1.87948e-05
1.78776e-05
1.71731e-05
1.7228e-05
1.55944e-05
1.15118e-05
6.03085e-06
1.07348e-06
2.68211e-08
6.4869e-09
2.49237e-07
1.17377e-06
4.78238e-06
1.06719e-05
1.52584e-05
1.98977e-05
2.25308e-05
2.29986e-05
2.17191e-05
2.02904e-05
1.91358e-05
1.81644e-05
1.76323e-05
1.85695e-05
1.82641e-05
1.41743e-05
7.82057e-06
1.5002e-06
3.03243e-08
6.14876e-09
2.96565e-07
1.43043e-06
5.86605e-06
1.20616e-05
1.69146e-05
2.18774e-05
2.38761e-05
2.36349e-05
2.22417e-05
2.02686e-05
1.83589e-05
1.70871e-05
1.68041e-05
1.84003e-05
1.95743e-05
1.56447e-05
8.86382e-06
1.86368e-06
3.33973e-08
5.09255e-09
2.87412e-07
1.51668e-06
6.10472e-06
1.27353e-05
1.799e-05
2.30332e-05
2.45771e-05
2.38543e-05
2.21321e-05
1.98561e-05
1.74912e-05
1.62044e-05
1.64903e-05
1.81005e-05
2.07513e-05
1.63935e-05
9.89867e-06
2.21804e-06
3.61824e-08
4.10628e-09
2.48724e-07
1.44985e-06
5.88606e-06
1.25305e-05
1.78256e-05
2.25171e-05
2.40632e-05
2.33277e-05
2.14775e-05
1.90171e-05
1.65862e-05
1.59283e-05
1.63609e-05
1.78679e-05
2.12459e-05
1.66001e-05
1.03536e-05
2.43749e-06
3.87999e-08
3.30919e-09
1.79489e-07
1.22512e-06
5.24367e-06
1.17894e-05
1.70882e-05
2.17177e-05
2.37393e-05
2.31333e-05
2.11011e-05
1.84709e-05
1.63522e-05
1.60345e-05
1.64215e-05
1.78479e-05
2.11745e-05
1.62759e-05
1.05466e-05
2.58265e-06
4.17459e-08
2.56098e-09
1.07808e-07
8.95792e-07
4.19973e-06
1.02287e-05
1.53941e-05
1.97937e-05
2.29142e-05
2.27411e-05
2.11992e-05
1.91441e-05
1.71396e-05
1.69201e-05
1.72857e-05
1.84278e-05
2.0923e-05
1.59756e-05
1.04613e-05
2.62386e-06
4.51625e-08
1.82149e-09
5.63537e-08
5.32622e-07
2.64493e-06
8.21124e-06
1.30891e-05
1.71151e-05
2.04576e-05
2.20724e-05
2.1554e-05
2.02709e-05
1.86548e-05
1.84462e-05
1.86519e-05
1.89909e-05
1.92965e-05
1.45923e-05
9.72845e-06
2.39273e-06
4.84651e-08
1.09715e-09
2.62247e-08
2.68588e-07
1.39977e-06
5.1917e-06
9.74549e-06
1.31973e-05
1.61195e-05
1.84937e-05
1.99032e-05
2.03933e-05
1.96773e-05
1.9439e-05
1.90513e-05
1.79584e-05
1.67493e-05
1.28968e-05
8.59622e-06
2.09291e-06
4.96038e-08
4.95938e-10
1.11723e-08
1.10058e-07
6.2698e-07
2.5619e-06
6.0075e-06
9.24331e-06
1.17059e-05
1.37593e-05
1.5006e-05
1.59985e-05
1.64841e-05
1.63224e-05
1.58114e-05
1.48174e-05
1.33819e-05
1.05302e-05
7.0497e-06
1.67465e-06
4.95953e-08
1.66946e-10
5.51242e-09
4.52808e-08
2.24176e-07
8.58303e-07
2.61402e-06
4.69677e-06
6.65576e-06
8.52838e-06
1.00143e-05
1.10098e-05
1.1649e-05
1.18828e-05
1.1833e-05
1.1002e-05
9.49394e-06
7.618e-06
5.00888e-06
1.12592e-06
4.39469e-08
1.27625e-10
3.54171e-09
2.16231e-08
8.56049e-08
2.64143e-07
7.69003e-07
1.54264e-06
2.43597e-06
3.24479e-06
3.94822e-06
4.60759e-06
5.04278e-06
5.25619e-06
5.29163e-06
5.22667e-06
4.98503e-06
4.8809e-06
2.94391e-06
6.48046e-07
3.78559e-08
3.58021e-10
5.54546e-09
1.78895e-08
4.54572e-08
1.13138e-07
2.10202e-07
4.2666e-07
5.93069e-07
8.41416e-07
1.00417e-06
1.21675e-06
1.38939e-06
1.59667e-06
1.77595e-06
1.97316e-06
2.13653e-06
2.19532e-06
1.28935e-06
2.41106e-07
2.45871e-08
1.41289e-10
3.31335e-10
9.67338e-10
1.67423e-09
3.53694e-09
5.15122e-09
9.13457e-09
1.09552e-08
1.4735e-08
1.59958e-08
1.8672e-08
1.95743e-08
2.14635e-08
2.31026e-08
2.73713e-08
2.65018e-08
2.66307e-08
2.60595e-08
2.31002e-08
1.47555e-08
)
;

boundaryField
{
    movingWall
    {
        type            nutkWallFunction;
        Cmu             0.09;
        kappa           0.41;
        E               9.8;
        value           uniform 0;
    }
    fixedWalls
    {
        type            nutkWallFunction;
        Cmu             0.09;
        kappa           0.41;
        E               9.8;
        value           uniform 0;
    }
    frontAndBack
    {
        type            empty;
    }
}


// ************************************************************************* //
