/*--------------------------------*- C++ -*----------------------------------*\
| =========                 |                                                 |
| \\      /  F ield         | OpenFOAM: The Open Source CFD Toolbox           |
|  \\    /   O peration     | Version:  5.0                                   |
|   \\  /    A nd           | Web:      www.OpenFOAM.org                      |
|    \\/     M anipulation  |                                                 |
\*---------------------------------------------------------------------------*/
FoamFile
{
    version     2.0;
    format      ascii;
    class       volScalarField;
    location    "7.5";
    object      omega;
}
// * * * * * * * * * * * * * * * * * * * * * * * * * * * * * * * * * * * * * //

dimensions      [0 0 -1 0 0 0 0];

internalField   nonuniform List<scalar> 
400
(
128
128
128
128
128
128
128
128
128
128
128
128
128
128
128
128
128
128
128
128
128
54.6146
77.5153
84.1914
79.4317
67.48
57.7604
47.6787
41.9805
36.663
34.3322
33.3514
34.219
36.58
39.5232
44.5869
52.554
65.8517
91.4921
128
128
52.3268
58.1652
55.826
43.0452
34.1247
27.7255
24.1615
22.0998
21.0705
20.6423
20.5476
21.2313
22.5295
25.0951
29.7034
37.9765
52.9857
83.7313
128
128
47.6798
46.1665
37.684
26.6877
21.5384
17.6137
15.6862
13.9333
13.0937
12.5303
12.351
12.4694
13.4874
15.1888
18.7158
25.5857
39.3441
72.5077
128
128
42.515
37.012
26.7773
18.8395
15.2118
12.1777
10.7007
9.30979
8.64948
8.25715
8.1329
8.32972
9.11898
10.5627
13.4395
19.5721
32.1611
64.8718
128
128
38.2171
30.3145
20.437
14.4011
11.518
9.09679
7.92808
6.86822
6.37004
6.08543
5.99353
6.15012
6.70958
7.81501
9.85507
14.6427
25.5036
57.2232
128
128
34.407
25.9547
16.6392
11.8008
9.35797
7.33786
6.36453
5.52742
5.12294
4.90349
4.83533
5.01543
5.50999
6.49955
8.20364
12.3208
22.3723
52.7225
128
128
32.4684
22.7375
14.468
10.3655
8.05752
6.28873
5.42763
4.71298
4.34124
4.12014
4.04019
4.14198
4.54133
5.43307
6.97847
10.2576
19.2491
48.1675
128
128
30.0941
20.9669
13.3439
9.58396
7.3409
5.70026
4.85983
4.22086
3.87571
3.67666
3.59609
3.67002
4.00538
4.78751
6.38158
9.28317
17.8145
45.7395
128
128
30.3004
19.5505
12.8629
9.35821
7.00131
5.36401
4.52944
3.95457
3.61277
3.41113
3.32171
3.37787
3.67501
4.33198
5.87334
8.40345
16.453
43.1326
128
128
32.2558
19.2927
12.9643
9.47056
7.05866
5.39676
4.46445
3.84928
3.48017
3.27774
3.21828
3.27651
3.54351
4.14391
5.65672
8.04298
15.8827
41.5427
128
128
36.8697
19.706
13.3023
9.79586
7.30615
5.5839
4.56578
3.9173
3.52368
3.28115
3.21346
3.26552
3.50908
4.08807
5.56335
7.90181
15.6247
40.1318
128
128
44.7294
21.0701
14.026
10.5096
7.87832
6.04923
4.86933
4.14398
3.7019
3.41662
3.34501
3.4029
3.64148
4.21575
5.60697
7.9055
15.5882
39.5407
128
128
54.9099
24.4417
15.2857
11.445
8.72187
6.74508
5.45697
4.63287
4.13439
3.7914
3.71875
3.79623
4.07886
4.70917
6.08076
8.38902
16.0836
39.8705
128
128
65.0125
29.4557
17.7436
12.9819
10.1761
8.123
6.66274
5.66456
5.07658
4.64122
4.5511
4.63917
4.93979
5.5692
6.8649
9.24991
17.0688
40.9965
128
128
74.2401
37.8833
21.5549
15.171
11.7877
9.63995
8.2214
7.20514
6.64812
6.23799
6.09408
6.15249
6.40146
6.96134
8.17331
10.6898
18.6811
43.1613
128
128
71.9968
44.7297
28.9709
19.997
14.9914
12.1069
10.3573
9.10431
8.48117
8.05445
7.98203
8.05955
8.33717
8.9398
10.2907
13.2219
21.9754
48.1637
128
128
60.7992
44.4951
34.0311
26.6512
21.4466
17.4696
14.8204
12.9753
11.8415
11.1564
10.7314
10.7618
11.0895
11.9595
14.0838
18.305
29.0249
59.0753
128
128
45.6574
43.2696
38.0541
33.0624
29.4425
26.232
24.3543
22.8913
22.3774
22.5317
23.1497
24.3806
26.9715
29.6172
35.137
41.901
56.8959
90.0625
128
128
128
128
128
128
128
128
128
128
128
128
128
128
128
128
128
128
128
128
128
)
;

boundaryField
{
    movingWall
    {
        Cmu             0.09;
        kappa           0.41;
        E               9.8;
        beta1           0.075;
        blended         false;
        type            omegaWallFunction;
        value           nonuniform List<scalar> 
20
(
128
128
128
128
128
128
128
128
128
128
128
128
128
128
128
128
128
128
128
128
)
;
    }
    fixedWalls
    {
        Cmu             0.09;
        kappa           0.41;
        E               9.8;
        beta1           0.075;
        blended         false;
        type            omegaWallFunction;
        value           nonuniform List<scalar> 
60
(
128
128
128
128
128
128
128
128
128
128
128
128
128
128
128
128
128
128
128
128
128
128
128
128
128
128
128
128
128
128
128
128
128
128
128
128
128
128
128
128
128
128
128
128
128
128
128
128
128
128
128
128
128
128
128
128
128
128
128
128
)
;
    }
    frontAndBack
    {
        type            empty;
    }
}


// ************************************************************************* //
