/*--------------------------------*- C++ -*----------------------------------*\
| =========                 |                                                 |
| \\      /  F ield         | OpenFOAM: The Open Source CFD Toolbox           |
|  \\    /   O peration     | Version:  5.0                                   |
|   \\  /    A nd           | Web:      www.OpenFOAM.org                      |
|    \\/     M anipulation  |                                                 |
\*---------------------------------------------------------------------------*/
FoamFile
{
    version     2.0;
    format      ascii;
    class       volScalarField;
    location    "7.5";
    object      p;
}
// * * * * * * * * * * * * * * * * * * * * * * * * * * * * * * * * * * * * * //

dimensions      [0 2 -2 0 0 0 0];

internalField   nonuniform List<scalar> 
400
(
1.05626e-07
-0.000102918
-0.000269381
-0.000180819
-0.000836403
-0.00251577
-0.004635
-0.00660514
-0.0082023
-0.00928956
-0.00982927
-0.00976934
-0.00906955
-0.0075779
-0.00519815
-0.00190996
0.00216141
0.00645221
0.0095444
0.0108135
2.57604e-05
-5.53881e-05
-0.000238741
-0.000831969
-0.00205206
-0.00385525
-0.00577084
-0.00761294
-0.00908372
-0.0100926
-0.0105908
-0.0105589
-0.00994717
-0.00866687
-0.00662591
-0.00378239
-0.000155096
0.00393331
0.00746605
0.00948428
0.000338844
-4.3975e-05
-0.000814907
-0.00211765
-0.00391729
-0.00585836
-0.00775648
-0.00947135
-0.0107249
-0.0115333
-0.011881
-0.0117623
-0.0111516
-0.0100438
-0.00839608
-0.0061675
-0.00330317
0.000178122
0.00369948
0.00609353
0.000226069
-0.000489929
-0.00191188
-0.00390386
-0.00607587
-0.00809874
-0.00980885
-0.0110994
-0.0120206
-0.0125904
-0.0127971
-0.0126462
-0.0121213
-0.0112071
-0.00989701
-0.0081892
-0.00603239
-0.00332423
-0.000331315
0.00195391
-0.000622563
-0.00160165
-0.00352869
-0.00587163
-0.00807754
-0.00990244
-0.0113108
-0.012336
-0.0130598
-0.0134967
-0.0136494
-0.0135041
-0.0130512
-0.0122852
-0.0112191
-0.00987162
-0.00825583
-0.00622839
-0.00403436
-0.00196094
-0.00219463
-0.00327509
-0.00536382
-0.00768049
-0.00969974
-0.0112485
-0.0124043
-0.0132611
-0.0138702
-0.0142368
-0.0143671
-0.014247
-0.0138727
-0.0132411
-0.0123668
-0.0112751
-0.0100479
-0.0085321
-0.0069755
-0.00525103
-0.00404778
-0.00509694
-0.00707185
-0.00919224
-0.0109497
-0.0122389
-0.0132175
-0.0139568
-0.0144881
-0.0148113
-0.0149318
-0.0148386
-0.014531
-0.0140099
-0.0132918
-0.0123877
-0.0114427
-0.0102756
-0.0092125
-0.00781634
-0.00574263
-0.00668664
-0.00844745
-0.0103449
-0.0118574
-0.0129459
-0.0138014
-0.0144562
-0.0149309
-0.015224
-0.0153403
-0.0152712
-0.015017
-0.0145802
-0.0139825
-0.0132084
-0.0124763
-0.011507
-0.0108048
-0.00969365
-0.00698782
-0.00783684
-0.0094049
-0.0111176
-0.0124511
-0.0134046
-0.0141757
-0.0147694
-0.0152022
-0.015473
-0.0155858
-0.0155344
-0.0153192
-0.01494
-0.0144321
-0.0137268
-0.0131752
-0.0122541
-0.0118769
-0.0109418
-0.00770233
-0.00847016
-0.00990754
-0.0115064
-0.0127343
-0.0136185
-0.0143433
-0.0148989
-0.015305
-0.0155616
-0.0156716
-0.0156302
-0.0154387
-0.0150902
-0.0146426
-0.0139448
-0.0135628
-0.0125439
-0.0124941
-0.0116091
-0.00785511
-0.00858797
-0.00995745
-0.0115102
-0.0127183
-0.0136041
-0.0143128
-0.0148529
-0.015247
-0.0154971
-0.0156047
-0.0155646
-0.0153782
-0.0150382
-0.0145996
-0.0138926
-0.0135956
-0.0124189
-0.0126983
-0.011697
-0.00747381
-0.00822236
-0.00957327
-0.0111567
-0.0124117
-0.0133495
-0.0140791
-0.0146318
-0.0150327
-0.0152857
-0.0153918
-0.0153447
-0.0151457
-0.0147896
-0.0143092
-0.0136092
-0.0132235
-0.0119602
-0.0124472
-0.0112197
-0.00666566
-0.0074823
-0.00884503
-0.0104572
-0.0118237
-0.0128546
-0.0136442
-0.0142403
-0.0146693
-0.014936
-0.0150421
-0.0149793
-0.0147496
-0.0143471
-0.013796
-0.013062
-0.0124811
-0.0111965
-0.0117332
-0.0101872
-0.00572104
-0.0065672
-0.00788541
-0.00941874
-0.0109167
-0.0120861
-0.0129872
-0.0136681
-0.0141545
-0.0144515
-0.0145622
-0.0144787
-0.0142033
-0.0137289
-0.0130812
-0.0122506
-0.0114292
-0.0101317
-0.0105731
-0.00864185
-0.00489989
-0.00565349
-0.00679554
-0.00814216
-0.00965139
-0.0109933
-0.0120788
-0.0129042
-0.0134885
-0.0138402
-0.0139668
-0.0138622
-0.0135296
-0.0129601
-0.012181
-0.0111909
-0.0101164
-0.0087703
-0.00903102
-0.0066317
-0.00459226
-0.00495001
-0.00561412
-0.00663749
-0.00804222
-0.00954279
-0.0108627
-0.011902
-0.0126465
-0.0130963
-0.0132632
-0.0131455
-0.0127536
-0.0120732
-0.0111321
-0.00993804
-0.00861734
-0.00717097
-0.00712872
-0.00416873
-0.00467245
-0.00450278
-0.00438663
-0.00494779
-0.0061837
-0.00777112
-0.00932899
-0.010628
-0.0115953
-0.0122057
-0.0124686
-0.0123769
-0.0119339
-0.0111403
-0.0100224
-0.00859472
-0.00700091
-0.0053753
-0.00485603
-0.00108436
-0.00448975
-0.00385455
-0.00305333
-0.00316903
-0.00424158
-0.00587542
-0.00762481
-0.00914715
-0.0103406
-0.0111349
-0.0115195
-0.0114823
-0.0110417
-0.010183
-0.00892565
-0.00728548
-0.00540045
-0.00338858
-0.00175305
0.00410652
-0.0038926
-0.00298027
-0.0018504
-0.0017465
-0.00269919
-0.00433917
-0.00621333
-0.0079374
-0.00932497
-0.0102915
-0.0107996
-0.0108481
-0.0104317
-0.00954425
-0.00819907
-0.00637522
-0.00405444
-0.000913402
0.00445309
0.0169535
-0.0052999
-0.00214931
-0.000808766
-0.000827155
-0.00172291
-0.00334657
-0.00527843
-0.00718118
-0.00872761
-0.00982772
-0.0104272
-0.0105457
-0.0101772
-0.00932971
-0.00794051
-0.0058992
-0.00240524
0.00455709
0.0185724
0.0410994
)
;

boundaryField
{
    movingWall
    {
        type            zeroGradient;
    }
    fixedWalls
    {
        type            zeroGradient;
    }
    frontAndBack
    {
        type            empty;
    }
}


// ************************************************************************* //
