/*--------------------------------*- C++ -*----------------------------------*\
| =========                 |                                                 |
| \\      /  F ield         | OpenFOAM: The Open Source CFD Toolbox           |
|  \\    /   O peration     | Version:  5.0                                   |
|   \\  /    A nd           | Web:      www.OpenFOAM.org                      |
|    \\/     M anipulation  |                                                 |
\*---------------------------------------------------------------------------*/
FoamFile
{
    version     2.0;
    format      ascii;
    class       surfaceScalarField;
    location    "7.5";
    object      phi;
}
// * * * * * * * * * * * * * * * * * * * * * * * * * * * * * * * * * * * * * //

dimensions      [0 3 -1 0 0 0 0];

internalField   nonuniform List<scalar> 
760
(
2.78165e-07
-2.78176e-07
1.65416e-07
1.12749e-07
-5.14634e-07
6.80049e-07
-1.98902e-06
1.47439e-06
-3.77323e-06
1.78421e-06
-5.29738e-06
1.52415e-06
-6.582e-06
1.28462e-06
-7.50841e-06
9.26403e-07
-8.22343e-06
7.15027e-07
-8.68301e-06
4.59581e-07
-8.97191e-06
2.88898e-07
-9.03981e-06
6.78948e-08
-8.94291e-06
-9.68957e-08
-8.62937e-06
-3.1354e-07
-8.09753e-06
-5.31845e-07
-7.20287e-06
-8.9466e-07
-5.87766e-06
-1.32521e-06
-3.95473e-06
-1.92294e-06
-1.63176e-06
-2.32296e-06
-1.63176e-06
-2.75499e-07
-2.67721e-09
-1.23887e-06
1.07612e-06
-2.91424e-06
2.35542e-06
-4.59237e-06
3.15251e-06
-5.77829e-06
2.97013e-06
-6.83602e-06
2.58188e-06
-7.61257e-06
2.06117e-06
-8.27308e-06
1.58692e-06
-8.71122e-06
1.15316e-06
-8.98068e-06
7.29044e-07
-9.05977e-06
3.67985e-07
-8.96936e-06
-2.25128e-08
-8.76128e-06
-3.04974e-07
-8.41825e-06
-6.56575e-07
-7.88285e-06
-1.06725e-06
-7.14064e-06
-1.63687e-06
-6.04432e-06
-2.42152e-06
-4.47667e-06
-3.49058e-06
-2.3083e-06
-4.49134e-06
-3.94006e-06
-1.01665e-06
1.01397e-06
-2.5542e-06
2.61367e-06
-4.05637e-06
3.85759e-06
-5.15235e-06
4.24849e-06
-5.97447e-06
3.79225e-06
-6.60004e-06
3.20745e-06
-6.96144e-06
2.42257e-06
-7.17288e-06
1.79836e-06
-7.16757e-06
1.14785e-06
-7.12587e-06
6.87343e-07
-7.01626e-06
2.58376e-07
-6.92799e-06
-1.10786e-07
-6.69993e-06
-5.33038e-07
-6.40046e-06
-9.56041e-07
-5.97687e-06
-1.49084e-06
-5.45592e-06
-2.15782e-06
-4.78376e-06
-3.09368e-06
-3.80552e-06
-4.46883e-06
-2.25162e-06
-6.04524e-06
-6.19168e-06
-1.35042e-06
2.3644e-06
-2.86967e-06
4.13291e-06
-4.05293e-06
5.04084e-06
-4.78828e-06
4.98385e-06
-5.22366e-06
4.22763e-06
-5.36781e-06
3.35161e-06
-5.37692e-06
2.43167e-06
-5.35628e-06
1.77772e-06
-5.36557e-06
1.15715e-06
-5.36284e-06
6.84612e-07
-5.30775e-06
2.03283e-07
-5.1878e-06
-2.30732e-07
-5.01268e-06
-7.0816e-07
-4.75028e-06
-1.21844e-06
-4.39235e-06
-1.84877e-06
-3.94643e-06
-2.60374e-06
-3.44286e-06
-3.59725e-06
-2.79329e-06
-5.1184e-06
-1.74906e-06
-7.08946e-06
-7.94074e-06
-1.35665e-06
3.72105e-06
-2.60702e-06
5.38328e-06
-3.42399e-06
5.85782e-06
-3.87051e-06
5.43036e-06
-4.01674e-06
4.37386e-06
-4.03512e-06
3.36999e-06
-4.06784e-06
2.46439e-06
-4.10232e-06
1.8122e-06
-4.13807e-06
1.1929e-06
-4.1417e-06
6.88241e-07
-4.10673e-06
1.68308e-07
-4.00715e-06
-3.30307e-07
-3.84317e-06
-8.72139e-07
-3.60187e-06
-1.45975e-06
-3.29804e-06
-2.15259e-06
-2.91864e-06
-2.98314e-06
-2.52324e-06
-3.99265e-06
-2.12398e-06
-5.51766e-06
-1.37511e-06
-7.83833e-06
-9.31585e-06
-1.11794e-06
4.83899e-06
-2.01751e-06
6.28285e-06
-2.60356e-06
6.44387e-06
-2.88201e-06
5.70881e-06
-2.96293e-06
4.45478e-06
-2.98572e-06
3.39279e-06
-3.0451e-06
2.52376e-06
-3.09814e-06
1.86525e-06
-3.1421e-06
1.23686e-06
-3.14862e-06
6.94762e-07
-3.11962e-06
1.39303e-07
-3.03779e-06
-4.12134e-07
-2.89995e-06
-1.00998e-06
-2.69536e-06
-1.66435e-06
-2.43346e-06
-2.41448e-06
-2.10639e-06
-3.31021e-06
-1.74266e-06
-4.35639e-06
-1.38584e-06
-5.87448e-06
-1.03711e-06
-8.18705e-06
-1.0353e-05
-7.99026e-07
5.63801e-06
-1.42249e-06
6.90632e-06
-1.83314e-06
6.85452e-06
-2.00395e-06
5.87962e-06
-2.07231e-06
4.52315e-06
-2.12187e-06
3.44235e-06
-2.19049e-06
2.59239e-06
-2.24159e-06
1.91634e-06
-2.28254e-06
1.2778e-06
-2.29117e-06
7.03392e-07
-2.27202e-06
1.20158e-07
-2.2137e-06
-4.70453e-07
-2.11413e-06
-1.10955e-06
-1.96179e-06
-1.8167e-06
-1.76205e-06
-2.61422e-06
-1.52312e-06
-3.54914e-06
-1.25569e-06
-4.62382e-06
-1.01256e-06
-6.11761e-06
-7.68143e-07
-8.43147e-06
-1.11211e-05
-4.63078e-07
6.10109e-06
-8.64208e-07
7.30745e-06
-1.13327e-06
7.12358e-06
-1.25604e-06
6.00239e-06
-1.32294e-06
4.59004e-06
-1.3783e-06
3.49771e-06
-1.44082e-06
2.6549e-06
-1.48397e-06
1.95949e-06
-1.51734e-06
1.31118e-06
-1.52692e-06
7.12967e-07
-1.51799e-06
1.11233e-07
-1.48291e-06
-5.05532e-07
-1.42073e-06
-1.17173e-06
-1.3195e-06
-1.91793e-06
-1.1788e-06
-2.75492e-06
-1.00605e-06
-3.72189e-06
-8.06793e-07
-4.82308e-06
-6.38561e-07
-6.28584e-06
-5.63813e-07
-8.50622e-06
-1.16849e-05
-1.89549e-07
6.29064e-06
-3.96075e-07
7.51398e-06
-5.34653e-07
7.26216e-06
-6.19623e-07
6.08736e-06
-6.75135e-07
4.64555e-06
-7.23536e-07
3.54612e-06
-7.71483e-07
2.70285e-06
-8.02907e-07
1.99092e-06
-8.27984e-07
1.33625e-06
-8.39648e-07
7.2463e-07
-8.42351e-07
1.13937e-07
-8.30629e-07
-5.17254e-07
-8.0613e-07
-1.19623e-06
-7.60983e-07
-1.96308e-06
-6.9475e-07
-2.82115e-06
-6.04286e-07
-3.81235e-06
-5.16376e-07
-4.91098e-06
-4.37253e-07
-6.36497e-06
-4.05119e-07
-8.53836e-06
-1.209e-05
9.14881e-08
6.19915e-06
4.35278e-08
7.56194e-06
-6.02377e-09
7.31171e-06
-3.09032e-08
6.11224e-06
-7.12664e-08
4.68591e-06
-1.21354e-07
3.5962e-06
-1.53921e-07
2.73541e-06
-1.7504e-07
2.01204e-06
-1.92995e-07
1.35421e-06
-2.07036e-07
7.38671e-07
-2.20779e-07
1.2768e-07
-2.31242e-07
-5.06791e-07
-2.35569e-07
-1.1919e-06
-2.45496e-07
-1.95315e-06
-2.24941e-07
-2.8417e-06
-2.32024e-07
-3.80527e-06
-1.85297e-07
-4.95771e-06
-2.09499e-07
-6.34076e-06
-3.05954e-07
-8.4419e-06
-1.2396e-05
3.42604e-07
5.85655e-06
4.90258e-07
7.41429e-06
5.70996e-07
7.23097e-06
5.14697e-07
6.16854e-06
4.68339e-07
4.73227e-06
4.40031e-07
3.62451e-06
4.25659e-07
2.74979e-06
4.18391e-07
2.01931e-06
4.08422e-07
1.36418e-06
3.94009e-07
7.53084e-07
3.70495e-07
1.51194e-07
3.383e-07
-4.74596e-07
2.99639e-07
-1.15324e-06
2.46236e-07
-1.89975e-06
1.99097e-07
-2.79456e-06
8.57549e-08
-3.69193e-06
7.62969e-08
-4.94825e-06
-8.94544e-08
-6.17501e-06
-2.09779e-07
-8.32158e-06
-1.26058e-05
5.80413e-07
5.27614e-06
9.24053e-07
7.07065e-06
1.11822e-06
7.0368e-06
1.08563e-06
6.20114e-06
1.03606e-06
4.78184e-06
1.00718e-06
3.65339e-06
1.00129e-06
2.75568e-06
1.00464e-06
2.01596e-06
1.00237e-06
1.36644e-06
9.89128e-07
7.66331e-07
9.58701e-07
1.81621e-07
9.09053e-07
-4.24947e-07
8.36844e-07
-1.08103e-06
7.49633e-07
-1.81254e-06
6.16516e-07
-2.66145e-06
4.87072e-07
-3.56248e-06
3.22404e-07
-4.78359e-06
6.7464e-08
-5.92007e-06
-1.29766e-07
-8.12435e-06
-1.27355e-05
8.4979e-07
4.42635e-06
1.31881e-06
6.60163e-06
1.62868e-06
6.72694e-06
1.68885e-06
6.14097e-06
1.63131e-06
4.83938e-06
1.60796e-06
3.67674e-06
1.60924e-06
2.7544e-06
1.61867e-06
2.00654e-06
1.62062e-06
1.36449e-06
1.6074e-06
7.79557e-07
1.5697e-06
2.19314e-07
1.50299e-06
-3.58229e-07
1.40016e-06
-9.78203e-07
1.26261e-06
-1.67499e-06
1.06483e-06
-2.46366e-06
8.6427e-07
-3.36192e-06
5.69098e-07
-4.48841e-06
2.3184e-07
-5.58281e-06
-2.63977e-09
-7.88987e-06
-1.27382e-05
1.06945e-06
3.35689e-06
1.74461e-06
5.92647e-06
2.14515e-06
6.3264e-06
2.32821e-06
5.95791e-06
2.29351e-06
4.87408e-06
2.27264e-06
3.6976e-06
2.27476e-06
2.75228e-06
2.28756e-06
1.99373e-06
2.29247e-06
1.35958e-06
2.27861e-06
7.93415e-07
2.23303e-06
2.64894e-07
2.14841e-06
-2.73616e-07
2.01418e-06
-8.43973e-07
1.82998e-06
-1.49078e-06
1.58169e-06
-2.21538e-06
1.29978e-06
-3.08001e-06
8.98064e-07
-4.0867e-06
4.58851e-07
-5.1436e-06
1.04381e-07
-7.5354e-06
-1.26338e-05
1.27584e-06
2.08105e-06
2.02225e-06
5.18006e-06
2.54362e-06
5.80503e-06
2.92592e-06
5.57561e-06
3.0498e-06
4.75019e-06
3.06611e-06
3.6813e-06
3.06949e-06
2.7489e-06
3.07776e-06
1.98546e-06
3.07532e-06
1.36202e-06
3.05146e-06
8.17277e-07
2.99223e-06
3.24128e-07
2.88412e-06
-1.65501e-07
2.71464e-06
-6.74499e-07
2.48346e-06
-1.2596e-06
2.1714e-06
-1.90332e-06
1.79192e-06
-2.70053e-06
1.2604e-06
-3.55518e-06
6.62033e-07
-4.54523e-06
2.45974e-07
-7.11934e-06
-1.23878e-05
1.23194e-06
8.4911e-07
2.13921e-06
4.27279e-06
2.82708e-06
5.11717e-06
3.42112e-06
4.98157e-06
3.77743e-06
4.39388e-06
3.93912e-06
3.51961e-06
4.00739e-06
2.68062e-06
4.03668e-06
1.95617e-06
4.03222e-06
1.36648e-06
3.99255e-06
8.56941e-07
3.90462e-06
4.12059e-07
3.77615e-06
-3.70277e-08
3.56085e-06
-4.59203e-07
3.2752e-06
-9.73948e-07
2.88285e-06
-1.51097e-06
2.38433e-06
-2.202e-06
1.7238e-06
-2.89466e-06
9.85563e-07
-3.80699e-06
4.71428e-07
-6.6052e-06
-1.19164e-05
6.47188e-07
2.01921e-07
1.78727e-06
3.13271e-06
2.828e-06
4.07643e-06
3.69565e-06
4.11391e-06
4.35014e-06
3.7394e-06
4.7723e-06
3.09745e-06
5.02126e-06
2.43166e-06
5.15264e-06
1.82479e-06
5.19789e-06
1.32123e-06
5.18307e-06
8.71771e-07
5.08791e-06
5.07212e-07
4.90588e-06
1.45001e-07
4.63604e-06
-1.89358e-07
4.27216e-06
-6.1007e-07
3.76082e-06
-9.99631e-07
3.10423e-06
-1.54541e-06
2.25371e-06
-2.04413e-06
1.35967e-06
-2.91296e-06
8.01346e-07
-6.04688e-06
-1.1115e-05
-2.14602e-07
4.16523e-07
1.0808e-06
1.83731e-06
2.33328e-06
2.82395e-06
3.52739e-06
2.9198e-06
4.51125e-06
2.75554e-06
5.26275e-06
2.34595e-06
5.77994e-06
1.91447e-06
6.13952e-06
1.46521e-06
6.3185e-06
1.14225e-06
6.39055e-06
7.99722e-07
6.31511e-06
5.82652e-07
6.1631e-06
2.97009e-07
5.85004e-06
1.23705e-07
5.41383e-06
-1.7386e-07
4.78318e-06
-3.6898e-07
3.98756e-06
-7.49799e-07
2.93577e-06
-9.92336e-07
2.04474e-06
-2.02193e-06
1.36143e-06
-5.36357e-06
-9.75362e-06
-1.1995e-06
1.61603e-06
-2.68651e-07
9.06454e-07
1.27337e-06
1.28194e-06
2.78028e-06
1.41289e-06
4.08371e-06
1.45211e-06
5.13933e-06
1.29033e-06
5.91683e-06
1.13697e-06
6.4794e-06
9.02637e-07
6.83957e-06
7.82082e-07
7.03423e-06
6.05061e-07
7.08183e-06
5.35058e-07
6.98676e-06
3.9208e-07
6.76112e-06
3.4934e-07
6.37836e-06
2.08897e-07
5.85428e-06
1.55107e-07
5.16337e-06
-5.88918e-08
4.44826e-06
-2.77226e-07
3.81032e-06
-1.38399e-06
2.59221e-06
-4.14546e-06
-7.16141e-06
1.61603e-06
2.52248e-06
3.80442e-06
5.21731e-06
6.66942e-06
7.95974e-06
9.09672e-06
9.99935e-06
1.07814e-05
1.13865e-05
1.19216e-05
1.23136e-05
1.2663e-05
1.28719e-05
1.3027e-05
1.29681e-05
1.26909e-05
1.13069e-05
7.16141e-06
)
;

boundaryField
{
    movingWall
    {
        type            calculated;
        value           uniform 0;
    }
    fixedWalls
    {
        type            calculated;
        value           uniform 0;
    }
    frontAndBack
    {
        type            empty;
        value           nonuniform 0();
    }
}


// ************************************************************************* //
