/*--------------------------------*- C++ -*----------------------------------*\
| =========                 |                                                 |
| \\      /  F ield         | OpenFOAM: The Open Source CFD Toolbox           |
|  \\    /   O peration     | Version:  5.0                                   |
|   \\  /    A nd           | Web:      www.OpenFOAM.org                      |
|    \\/     M anipulation  |                                                 |
\*---------------------------------------------------------------------------*/
FoamFile
{
    version     2.0;
    format      ascii;
    class       volVectorField;
    location    "7.5";
    object      U;
}
// * * * * * * * * * * * * * * * * * * * * * * * * * * * * * * * * * * * * * //

dimensions      [0 1 -1 0 0 0 0];

internalField   nonuniform List<vector> 
400
(
(0.00250321 -0.00396673 0)
(0.00824901 -0.00205831 0)
(-0.00260732 0.00146507 0)
(-0.0149093 0.00915304 0)
(-0.0616973 0.0195744 0)
(-0.0951208 0.0149991 0)
(-0.123651 0.0145065 0)
(-0.143869 0.0113771 0)
(-0.159721 0.00974733 0)
(-0.170512 0.00724657 0)
(-0.177951 0.00564613 0)
(-0.181346 0.00358879 0)
(-0.182222 0.00166451 0)
(-0.177702 -0.00134721 0)
(-0.1685 -0.00398878 0)
(-0.152218 -0.00896304 0)
(-0.128412 -0.0136734 0)
(-0.0952175 -0.0197007 0)
(-0.056807 -0.0192014 0)
(-0.012384 -0.00512081 0)
(-0.000566869 -0.00828363 0)
(-0.010154 0.00697959 0)
(-0.0369236 0.0284857 0)
(-0.0766889 0.0495729 0)
(-0.108227 0.0476239 0)
(-0.129358 0.0417044 0)
(-0.147163 0.0345341 0)
(-0.161133 0.0241953 0)
(-0.171485 0.0176925 0)
(-0.178165 0.0100071 0)
(-0.181746 0.00485891 0)
(-0.182191 -0.00154286 0)
(-0.179482 -0.0065268 0)
(-0.174053 -0.0133753 0)
(-0.164421 -0.0205822 0)
(-0.150278 -0.0315791 0)
(-0.129789 -0.0452926 0)
(-0.102136 -0.0637662 0)
(-0.0684981 -0.0775498 0)
(-0.0194359 -0.0555977 0)
(-0.00738215 0.00852926 0)
(-0.0329026 0.0388702 0)
(-0.066982 0.0642164 0)
(-0.0963973 0.074196 0)
(-0.114899 0.0670778 0)
(-0.127482 0.0574756 0)
(-0.138461 0.04344 0)
(-0.143216 0.0341652 0)
(-0.143422 0.0238407 0)
(-0.143618 0.0155279 0)
(-0.141632 0.00737161 0)
(-0.1401 7.6214e-05 0)
(-0.137311 -0.00746591 0)
(-0.13219 -0.0153394 0)
(-0.125375 -0.0255424 0)
(-0.115476 -0.038971 0)
(-0.102065 -0.0588994 0)
(-0.0825658 -0.0853971 0)
(-0.0608312 -0.112718 0)
(-0.02209 -0.11141 0)
(-0.0111161 0.0343338 0)
(-0.0430601 0.0684452 0)
(-0.0738589 0.089738 0)
(-0.0930166 0.0912737 0)
(-0.103272 0.0793941 0)
(-0.10856 0.0652643 0)
(-0.108039 0.0491917 0)
(-0.10598 0.0359001 0)
(-0.107665 0.0230986 0)
(-0.107228 0.0135439 0)
(-0.107255 0.00416452 0)
(-0.105487 -0.00373387 0)
(-0.102647 -0.0125297 0)
(-0.0982457 -0.0215226 0)
(-0.0921135 -0.0326992 0)
(-0.0849662 -0.046569 0)
(-0.075038 -0.0666317 0)
(-0.0589882 -0.0981162 0)
(-0.0463128 -0.135644 0)
(-0.0171321 -0.145196 0)
(-0.010853 0.0598738 0)
(-0.0440639 0.0948389 0)
(-0.0646895 0.107641 0)
(-0.0776092 0.103122 0)
(-0.0808277 0.086141 0)
(-0.0807887 0.068242 0)
(-0.0797663 0.0499693 0)
(-0.081377 0.0365005 0)
(-0.0823632 0.0237784 0)
(-0.0831255 0.0137225 0)
(-0.0828812 0.00349413 0)
(-0.0816706 -0.00605195 0)
(-0.078855 -0.0165472 0)
(-0.0747502 -0.0277257 0)
(-0.0690021 -0.0408103 0)
(-0.0626031 -0.0561762 0)
(-0.0564035 -0.0754218 0)
(-0.0414945 -0.106138 0)
(-0.0405646 -0.152983 0)
(-0.00772681 -0.177323 0)
(-0.00944303 0.0840843 0)
(-0.0362445 0.115541 0)
(-0.0493329 0.121995 0)
(-0.0593629 0.111169 0)
(-0.0584599 0.089205 0)
(-0.0585915 0.0684067 0)
(-0.0592915 0.0504434 0)
(-0.0615675 0.0371959 0)
(-0.062273 0.0245517 0)
(-0.0633392 0.0139271 0)
(-0.0629144 0.00305452 0)
(-0.0620271 -0.00752546 0)
(-0.0596196 -0.0190277 0)
(-0.0561939 -0.0315932 0)
(-0.0511945 -0.0461413 0)
(-0.0448179 -0.0633371 0)
(-0.0414215 -0.0833021 0)
(-0.02575 -0.11311 0)
(-0.0310457 -0.159395 0)
(-0.00463193 -0.197161 0)
(-0.00706381 0.104239 0)
(-0.0260723 0.130746 0)
(-0.0351949 0.132112 0)
(-0.0420607 0.115606 0)
(-0.039675 0.0898937 0)
(-0.0412527 0.0686662 0)
(-0.0425332 0.0514017 0)
(-0.0445337 0.0379762 0)
(-0.0451624 0.0252241 0)
(-0.0461024 0.0139428 0)
(-0.0457959 0.00246329 0)
(-0.0451649 -0.00907976 0)
(-0.0434146 -0.021553 0)
(-0.0409166 -0.0352588 0)
(-0.0374798 -0.0507841 0)
(-0.031329 -0.0692024 0)
(-0.031463 -0.0901046 0)
(-0.0162503 -0.120499 0)
(-0.0267957 -0.167073 0)
(0.000873218 -0.216036 0)
(-0.00363121 0.117017 0)
(-0.0158489 0.141744 0)
(-0.0219523 0.139819 0)
(-0.0265681 0.11905 0)
(-0.0243481 0.0918065 0)
(-0.0267522 0.0697492 0)
(-0.0278539 0.0526687 0)
(-0.02944 0.0388563 0)
(-0.0299793 0.0259443 0)
(-0.0307001 0.0141555 0)
(-0.0305774 0.00226254 0)
(-0.0302057 -0.0098871 0)
(-0.0290954 -0.0230158 0)
(-0.0273877 -0.0376184 0)
(-0.0257827 -0.0539229 0)
(-0.0195515 -0.0730195 0)
(-0.0226896 -0.0941673 0)
(-0.00698499 -0.123411 0)
(-0.0211514 -0.168544 0)
(0.00244023 -0.227326 0)
(-0.000674415 0.125131 0)
(-0.00756299 0.148537 0)
(-0.0103303 0.143952 0)
(-0.0132968 0.120998 0)
(-0.0115278 0.0918998 0)
(-0.014084 0.070228 0)
(-0.0147468 0.0535626 0)
(-0.0158755 0.0395361 0)
(-0.0162936 0.0265225 0)
(-0.0168334 0.0143897 0)
(-0.0169067 0.00222236 0)
(-0.0168453 -0.0103175 0)
(-0.0164246 -0.023855 0)
(-0.0153301 -0.0390907 0)
(-0.0158841 -0.0562186 0)
(-0.00998422 -0.0758327 0)
(-0.0164601 -0.0981854 0)
(-0.00129699 -0.12736 0)
(-0.0190241 -0.170981 0)
(0.00605373 -0.238828 0)
(0.00279497 0.12595 0)
(0.000494969 0.152088 0)
(0.000586559 0.146715 0)
(-0.00109052 0.1224 0)
(-2.61537e-05 0.094149 0)
(-0.00234268 0.0719189 0)
(-0.00261204 0.0546631 0)
(-0.00336828 0.0401952 0)
(-0.00366506 0.0270087 0)
(-0.00407287 0.0146747 0)
(-0.00431624 0.00240323 0)
(-0.00454009 -0.0103047 0)
(-0.0048364 -0.0239861 0)
(-0.00414873 -0.0393024 0)
(-0.00643706 -0.0569497 0)
(-0.0010645 -0.0760979 0)
(-0.0102189 -0.0992437 0)
(0.00517979 -0.126118 0)
(-0.0162139 -0.17019 0)
(0.00706414 -0.24487 0)
(0.00594293 0.122535 0)
(0.00716462 0.151552 0)
(0.0104828 0.146345 0)
(0.0100899 0.122819 0)
(0.0108409 0.0934358 0)
(0.00889341 0.0716172 0)
(0.00885121 0.0545978 0)
(0.00843556 0.040223 0)
(0.00828448 0.0271613 0)
(0.0080004 0.0149017 0)
(0.00762167 0.0027533 0)
(0.0071834 -0.00990464 0)
(0.00620529 -0.0236187 0)
(0.00624141 -0.0387822 0)
(0.00279719 -0.0567132 0)
(0.00671989 -0.0754442 0)
(-0.0047409 -0.10013 0)
(0.00965478 -0.125759 0)
(-0.0154191 -0.168706 0)
(0.0100533 -0.250866 0)
(0.00756872 0.113176 0)
(0.0145631 0.147324 0)
(0.0201528 0.144518 0)
(0.0215243 0.124148 0)
(0.0221561 0.0959994 0)
(0.0204521 0.0733235 0)
(0.0202877 0.055379 0)
(0.020097 0.0405634 0)
(0.0200828 0.0274477 0)
(0.0199302 0.0152768 0)
(0.0194398 0.00335763 0)
(0.0188973 -0.00902557 0)
(0.0173222 -0.0224619 0)
(0.0166311 -0.0373021 0)
(0.0124403 -0.0546836 0)
(0.0145133 -0.0728994 0)
(0.00177269 -0.0971545 0)
(0.0151247 -0.120686 0)
(-0.0145718 -0.164666 0)
(0.0121124 -0.253333 0)
(0.0110541 0.101948 0)
(0.0209597 0.139185 0)
(0.0293389 0.138745 0)
(0.0324607 0.124042 0)
(0.033904 0.0943965 0)
(0.0326319 0.0721604 0)
(0.0324005 0.0544612 0)
(0.0323459 0.0398713 0)
(0.0323901 0.027127 0)
(0.0323495 0.0153774 0)
(0.0316963 0.00395718 0)
(0.0310885 -0.00787505 0)
(0.0288848 -0.0206342 0)
(0.0275399 -0.034959 0)
(0.0224352 -0.0514218 0)
(0.0223773 -0.0697516 0)
(0.00871032 -0.0930576 0)
(0.0192073 -0.116132 0)
(-0.0141239 -0.159792 0)
(0.0158124 -0.254567 0)
(0.0126476 0.0790208 0)
(0.0275115 0.128677 0)
(0.0397531 0.132099 0)
(0.0437199 0.123106 0)
(0.0467158 0.0984039 0)
(0.0460536 0.0739897 0)
(0.0456743 0.0552171 0)
(0.0457066 0.0401953 0)
(0.0457654 0.0274434 0)
(0.0458692 0.0159342 0)
(0.0450058 0.00498887 0)
(0.04431 -0.00621725 0)
(0.0414662 -0.0181287 0)
(0.0395404 -0.0315987 0)
(0.0334798 -0.0468242 0)
(0.0316199 -0.0644607 0)
(0.0173345 -0.0854623 0)
(0.0245703 -0.106976 0)
(-0.0122196 -0.153902 0)
(0.0193686 -0.253039 0)
(0.0164009 0.0596924 0)
(0.0318266 0.112398 0)
(0.0466941 0.121872 0)
(0.0540685 0.115378 0)
(0.0594143 0.0968286 0)
(0.0611332 0.0732168 0)
(0.0614646 0.0539872 0)
(0.0616334 0.0389096 0)
(0.061471 0.0266361 0)
(0.0615427 0.0158219 0)
(0.0602707 0.00576374 0)
(0.0593977 -0.00452251 0)
(0.0557664 -0.0152194 0)
(0.0532891 -0.027459 0)
(0.0460228 -0.041116 0)
(0.0423974 -0.0577373 0)
(0.0273205 -0.0765389 0)
(0.0295386 -0.0974184 0)
(-0.0103642 -0.146587 0)
(0.0251299 -0.251527 0)
(0.0131444 0.0216718 0)
(0.035245 0.0963047 0)
(0.051475 0.11165 0)
(0.0622747 0.108765 0)
(0.0708714 0.0950596 0)
(0.0765253 0.0748732 0)
(0.0792238 0.0557511 0)
(0.0806929 0.0399666 0)
(0.0805848 0.0273995 0)
(0.080768 0.0167789 0)
(0.0787078 0.00747503 0)
(0.0776513 -0.00176737 0)
(0.0729893 -0.0110976 0)
(0.0699682 -0.0219868 0)
(0.0612201 -0.0337808 0)
(0.0558959 -0.0487184 0)
(0.0396563 -0.0643258 0)
(0.0359912 -0.0833473 0)
(-0.00546857 -0.138249 0)
(0.0316401 -0.248111 0)
(0.000172313 0.00916614 0)
(0.027259 0.0691535 0)
(0.0485467 0.0914934 0)
(0.0646291 0.0925746 0)
(0.0790254 0.0836762 0)
(0.0900606 0.0688277 0)
(0.0971823 0.0535673 0)
(0.10204 0.0392913 0)
(0.103284 0.0273097 0)
(0.104674 0.0169892 0)
(0.102232 0.00840816 0)
(0.101124 7.73223e-05 0)
(0.095008 -0.00764555 0)
(0.0910163 -0.0166129 0)
(0.0802361 -0.0256283 0)
(0.0724832 -0.0376673 0)
(0.0538089 -0.0494141 0)
(0.0428311 -0.0686755 0)
(0.00112454 -0.131858 0)
(0.0413112 -0.244716 0)
(-0.0189829 -0.00181671 0)
(0.0117636 0.0556123 0)
(0.0360755 0.0750945 0)
(0.0581677 0.077101 0)
(0.0785378 0.0710291 0)
(0.0969131 0.0597059 0)
(0.109135 0.0477943 0)
(0.119894 0.0374331 0)
(0.123784 0.0286176 0)
(0.128355 0.0203086 0)
(0.126548 0.0137133 0)
(0.126395 0.00674643 0)
(0.119538 0.001165 0)
(0.114975 -0.00593056 0)
(0.101976 -0.0119744 0)
(0.0920017 -0.0212056 0)
(0.0697886 -0.0297342 0)
(0.0523209 -0.051137 0)
(0.0164092 -0.124759 0)
(0.0542731 -0.232656 0)
(-0.0257672 0.0227761 0)
(-0.0186975 0.0205076 0)
(0.0104217 0.0384239 0)
(0.0409047 0.0416226 0)
(0.0670531 0.0411726 0)
(0.0921424 0.0361435 0)
(0.109333 0.0307588 0)
(0.124504 0.0231041 0)
(0.132835 0.0188138 0)
(0.139603 0.0130517 0)
(0.141491 0.0106255 0)
(0.141561 0.00566158 0)
(0.137651 0.00415355 0)
(0.132964 -0.000478002 0)
(0.121573 -0.00205332 0)
(0.112228 -0.00826991 0)
(0.0899622 -0.0130143 0)
(0.0783997 -0.0390419 0)
(0.0560652 -0.110744 0)
(0.0788322 -0.182244 0)
(0.0358791 0.0324947 0)
(0.0400761 0.0189769 0)
(0.057659 0.0169427 0)
(0.0902586 0.0176916 0)
(0.116263 0.0197019 0)
(0.145497 0.0183045 0)
(0.168226 0.0174905 0)
(0.19067 0.015045 0)
(0.207331 0.0139164 0)
(0.222401 0.0120073 0)
(0.233449 0.011196 0)
(0.242779 0.00974304 0)
(0.249821 0.00913024 0)
(0.25453 0.00796062 0)
(0.258793 0.00752124 0)
(0.258868 0.00584825 0)
(0.254159 0.00468062 0)
(0.240646 -0.00251399 0)
(0.201252 -0.0147471 0)
(0.148445 -0.0345423 0)
)
;

boundaryField
{
    movingWall
    {
        type            fixedValue;
        value           uniform (1 0 0);
    }
    fixedWalls
    {
        type            noSlip;
    }
    frontAndBack
    {
        type            empty;
    }
}


// ************************************************************************* //
