/*--------------------------------*- C++ -*----------------------------------*\
| =========                 |                                                 |
| \\      /  F ield         | OpenFOAM: The Open Source CFD Toolbox           |
|  \\    /   O peration     | Version:  5.0                                   |
|   \\  /    A nd           | Web:      www.OpenFOAM.org                      |
|    \\/     M anipulation  |                                                 |
\*---------------------------------------------------------------------------*/
FoamFile
{
    version     2.0;
    format      ascii;
    class       volScalarField;
    location    "4.5";
    object      p;
}
// * * * * * * * * * * * * * * * * * * * * * * * * * * * * * * * * * * * * * //

dimensions      [0 2 -2 0 0 0 0];

internalField   nonuniform List<scalar> 
400
(
5.0183e-08
-5.50839e-05
-0.000145195
-0.000183079
-0.000341116
-0.00108775
-0.002248
-0.00337873
-0.00431421
-0.00497692
-0.00534391
-0.00540003
-0.00515747
-0.00457248
-0.00337838
-0.00132815
0.00158891
0.00504847
0.00793399
0.009146
4.30039e-05
-9.26808e-06
-9.93416e-05
-0.000391931
-0.00101545
-0.00195405
-0.0030083
-0.00402381
-0.00485507
-0.00543094
-0.00575134
-0.00582303
-0.00565215
-0.00519651
-0.00432151
-0.00274637
-0.000329427
0.00287327
0.00599015
0.00776363
0.000161614
2.82684e-06
-0.000387812
-0.00108045
-0.00206148
-0.0031342
-0.00418513
-0.0051512
-0.00585114
-0.00630142
-0.00652248
-0.00653649
-0.00633875
-0.00593678
-0.00533211
-0.00436763
-0.00271766
-0.000210667
0.00274063
0.00479874
0.000188529
-0.000195788
-0.000969685
-0.00208336
-0.00329454
-0.00442218
-0.00536359
-0.00603842
-0.00648631
-0.00674938
-0.00683913
-0.00677352
-0.0065799
-0.0062625
-0.00583606
-0.00526344
-0.00435567
-0.00266793
-0.00033041
0.00161907
-0.00021691
-0.000758971
-0.0018535
-0.0031739
-0.00437887
-0.00532372
-0.00600759
-0.00650754
-0.00686488
-0.00708573
-0.00715805
-0.00707107
-0.00684877
-0.00652378
-0.00613291
-0.00571842
-0.00525595
-0.00425496
-0.00275778
-0.00107007
-0.00104792
-0.00165123
-0.00284854
-0.00412078
-0.00516941
-0.00588178
-0.00642679
-0.00689542
-0.00728036
-0.00752379
-0.00759541
-0.00749615
-0.00725039
-0.00690468
-0.0065071
-0.00613705
-0.00586
-0.00526618
-0.00444165
-0.00314549
-0.00206717
-0.0026531
-0.00376505
-0.00488106
-0.00574477
-0.00632129
-0.00686337
-0.00740406
-0.00787537
-0.00818593
-0.00828581
-0.00817034
-0.00788058
-0.00747234
-0.00701551
-0.00661982
-0.00642814
-0.00601739
-0.00559761
-0.0046582
-0.00301735
-0.00354432
-0.00451454
-0.00547327
-0.00621783
-0.00675901
-0.00737899
-0.00805513
-0.00866527
-0.00907667
-0.00923063
-0.00910672
-0.00875187
-0.00823977
-0.00766802
-0.00718064
-0.00700173
-0.0066403
-0.00645193
-0.00573187
-0.00374475
-0.00420824
-0.00507031
-0.00594331
-0.00663058
-0.00720993
-0.0079617
-0.00880265
-0.00958075
-0.0101224
-0.0103357
-0.0102047
-0.00977914
-0.00914285
-0.00841945
-0.00777382
-0.00755976
-0.00713474
-0.00709057
-0.00646955
-0.00420816
-0.00462224
-0.00542823
-0.0062871
-0.00697617
-0.00763079
-0.00852715
-0.0095242
-0.0104476
-0.0110847
-0.011344
-0.0112117
-0.0107325
-0.00999202
-0.0091479
-0.00830149
-0.00802065
-0.00743947
-0.00755341
-0.00691709
-0.00438459
-0.00479407
-0.00557507
-0.00646952
-0.00721373
-0.00793764
-0.00893681
-0.0100368
-0.0110467
-0.0117467
-0.0120322
-0.0118852
-0.0113695
-0.0105595
-0.00964643
-0.00860626
-0.00830383
-0.00748334
-0.00783056
-0.00705534
-0.00428546
-0.00470934
-0.00550033
-0.00644805
-0.00724598
-0.00804998
-0.00908179
-0.0102275
-0.0112714
-0.0120028
-0.0123008
-0.0121377
-0.0115906
-0.0107295
-0.00977361
-0.00858971
-0.00831311
-0.00722489
-0.00787739
-0.00684023
-0.00397046
-0.00446433
-0.00525048
-0.00618578
-0.00703981
-0.00789009
-0.00891373
-0.0100462
-0.0110836
-0.011816
-0.0121194
-0.0119559
-0.011384
-0.0105095
-0.00948938
-0.00831047
-0.00791099
-0.00670511
-0.00763534
-0.00623888
-0.00359604
-0.00406957
-0.0048071
-0.00567433
-0.00657696
-0.00743457
-0.00840453
-0.00946969
-0.0104616
-0.0111763
-0.0114953
-0.0113595
-0.0108005
-0.00992338
-0.00887471
-0.00774752
-0.00713977
-0.00601457
-0.00705754
-0.00526811
-0.00342739
-0.00374784
-0.00429355
-0.00498549
-0.00582898
-0.00668923
-0.00761605
-0.0086113
-0.00954887
-0.0102426
-0.010577
-0.0104812
-0.00995228
-0.00908433
-0.0080308
-0.0069253
-0.00617184
-0.00521856
-0.00620901
-0.00399874
-0.00351774
-0.0035778
-0.00374628
-0.00415187
-0.00484666
-0.0057086
-0.00664888
-0.00762178
-0.00852788
-0.00920873
-0.0095528
-0.00948952
-0.00899993
-0.00814503
-0.00707735
-0.00596983
-0.00515925
-0.00438259
-0.00519971
-0.00247194
-0.00352654
-0.0033295
-0.00308589
-0.00316614
-0.00370391
-0.00457013
-0.00556777
-0.00657635
-0.00749887
-0.00819828
-0.00857166
-0.00854677
-0.00809599
-0.00725456
-0.00618538
-0.00507668
-0.00423684
-0.00360935
-0.00402193
-0.000529372
-0.00335151
-0.00290961
-0.00230452
-0.00206477
-0.00248936
-0.00337677
-0.00444707
-0.00552166
-0.00648897
-0.00722749
-0.00764301
-0.00766976
-0.00729168
-0.00653473
-0.00552809
-0.0044311
-0.00352831
-0.00281764
-0.00229842
0.00334021
-0.00301482
-0.00247458
-0.00158212
-0.00116975
-0.00154884
-0.00244151
-0.00357056
-0.00472308
-0.00576172
-0.0065674
-0.00706117
-0.00717063
-0.00687324
-0.00617384
-0.00524481
-0.00417688
-0.00314948
-0.00150249
0.00275136
0.0150126
-0.00465169
-0.00191863
-0.000736119
-0.000513165
-0.000926573
-0.00183289
-0.00301949
-0.0042562
-0.00536074
-0.00623884
-0.00680146
-0.00701281
-0.00680414
-0.00619158
-0.00518417
-0.00379589
-0.00162616
0.00356612
0.0162923
0.0383983
)
;

boundaryField
{
    movingWall
    {
        type            zeroGradient;
    }
    fixedWalls
    {
        type            zeroGradient;
    }
    frontAndBack
    {
        type            empty;
    }
}


// ************************************************************************* //
