/*--------------------------------*- C++ -*----------------------------------*\
| =========                 |                                                 |
| \\      /  F ield         | OpenFOAM: The Open Source CFD Toolbox           |
|  \\    /   O peration     | Version:  5.0                                   |
|   \\  /    A nd           | Web:      www.OpenFOAM.org                      |
|    \\/     M anipulation  |                                                 |
\*---------------------------------------------------------------------------*/
FoamFile
{
    version     2.0;
    format      ascii;
    class       surfaceScalarField;
    location    "4.5";
    object      phi;
}
// * * * * * * * * * * * * * * * * * * * * * * * * * * * * * * * * * * * * * //

dimensions      [0 3 -1 0 0 0 0];

internalField   nonuniform List<scalar> 
760
(
1.7563e-07
-1.75635e-07
1.54614e-07
2.10156e-08
-2.15338e-07
3.69953e-07
-1.17018e-06
9.54843e-07
-2.54679e-06
1.37661e-06
-3.83507e-06
1.28828e-06
-4.89377e-06
1.0587e-06
-5.7133e-06
8.19527e-07
-6.32799e-06
6.14694e-07
-6.78199e-06
4.53993e-07
-7.08414e-06
3.02151e-07
-7.27608e-06
1.91943e-07
-7.32031e-06
4.4234e-08
-7.23635e-06
-8.39638e-08
-6.96159e-06
-2.74761e-07
-6.42413e-06
-5.37455e-07
-5.41086e-06
-1.01327e-06
-3.80595e-06
-1.60492e-06
-1.66648e-06
-2.13947e-06
-1.66648e-06
-1.40977e-07
-3.46585e-08
-7.63342e-07
6.43381e-07
-1.99395e-06
1.60056e-06
-3.41415e-06
2.37504e-06
-4.44597e-06
2.40843e-06
-5.22306e-06
2.06537e-06
-5.86453e-06
1.70017e-06
-6.36876e-06
1.32376e-06
-6.7565e-06
1.00243e-06
-6.99339e-06
6.9088e-07
-7.13131e-06
4.40067e-07
-7.1285e-06
1.89135e-07
-7.03993e-06
-4.43383e-08
-6.8601e-06
-2.63793e-07
-6.59726e-06
-5.37595e-07
-6.1463e-06
-9.88424e-07
-5.40019e-06
-1.75938e-06
-4.09333e-06
-2.91177e-06
-2.17305e-06
-4.05975e-06
-3.83953e-06
-6.17961e-07
5.83303e-07
-1.75634e-06
1.78176e-06
-3.02421e-06
2.86843e-06
-3.92672e-06
3.27756e-06
-4.54623e-06
3.02794e-06
-4.99099e-06
2.51013e-06
-5.22466e-06
1.93384e-06
-5.28887e-06
1.38797e-06
-5.18986e-06
9.03421e-07
-5.04823e-06
5.4925e-07
-4.89588e-06
2.87721e-07
-4.77319e-06
6.64411e-08
-4.6823e-06
-1.35224e-07
-4.56766e-06
-3.78435e-07
-4.44573e-06
-6.59526e-07
-4.27799e-06
-1.15616e-06
-3.99134e-06
-2.04603e-06
-3.29946e-06
-3.60365e-06
-1.97759e-06
-5.38162e-06
-5.81712e-06
-9.76789e-07
1.56009e-06
-2.18139e-06
2.98636e-06
-3.10432e-06
3.79135e-06
-3.66051e-06
3.83375e-06
-3.89185e-06
3.25928e-06
-3.81385e-06
2.43213e-06
-3.5963e-06
1.71629e-06
-3.39194e-06
1.18361e-06
-3.29219e-06
8.03674e-07
-3.20923e-06
4.66286e-07
-3.127e-06
2.05499e-07
-2.9964e-06
-6.41627e-08
-2.83997e-06
-2.91656e-07
-2.66816e-06
-5.50243e-07
-2.52888e-06
-7.98804e-07
-2.47875e-06
-1.20629e-06
-2.49858e-06
-2.0262e-06
-2.29828e-06
-3.80395e-06
-1.48661e-06
-6.19329e-06
-7.30373e-06
-1.01696e-06
2.57705e-06
-1.98505e-06
3.95446e-06
-2.57175e-06
4.37804e-06
-2.83387e-06
4.09587e-06
-2.74387e-06
3.16928e-06
-2.57814e-06
2.2664e-06
-2.50812e-06
1.64627e-06
-2.57179e-06
1.24728e-06
-2.67198e-06
9.03863e-07
-2.739e-06
5.33307e-07
-2.71532e-06
1.81813e-07
-2.58051e-06
-1.98972e-07
-2.34045e-06
-5.31715e-07
-2.04452e-06
-8.46173e-07
-1.74881e-06
-1.09451e-06
-1.52935e-06
-1.42575e-06
-1.46649e-06
-2.08907e-06
-1.49394e-06
-3.77649e-06
-1.11743e-06
-6.5698e-06
-8.42116e-06
-8.53403e-07
3.43046e-06
-1.52751e-06
4.62856e-06
-1.92485e-06
4.77539e-06
-2.03596e-06
4.20698e-06
-1.96177e-06
3.0951e-06
-1.9559e-06
2.26052e-06
-2.14743e-06
1.83781e-06
-2.43011e-06
1.52996e-06
-2.67124e-06
1.14499e-06
-2.81361e-06
6.75674e-07
-2.78135e-06
1.49558e-07
-2.61963e-06
-3.60695e-07
-2.32282e-06
-8.2853e-07
-1.93476e-06
-1.23423e-06
-1.50563e-06
-1.52364e-06
-1.13518e-06
-1.79621e-06
-9.32186e-07
-2.29206e-06
-8.91074e-07
-3.8176e-06
-7.84936e-07
-6.67594e-06
-9.2061e-06
-5.87335e-07
4.01779e-06
-1.03747e-06
5.0787e-06
-1.31877e-06
5.05668e-06
-1.39657e-06
4.28478e-06
-1.44622e-06
3.14475e-06
-1.68658e-06
2.50088e-06
-2.0805e-06
2.23172e-06
-2.46586e-06
1.91532e-06
-2.77151e-06
1.45065e-06
-2.93811e-06
8.42272e-07
-2.92486e-06
1.36307e-07
-2.75133e-06
-5.34219e-07
-2.4337e-06
-1.14616e-06
-2.00548e-06
-1.66245e-06
-1.51299e-06
-2.01614e-06
-1.03751e-06
-2.27169e-06
-6.94944e-07
-2.63462e-06
-6.26955e-07
-3.88559e-06
-6.0985e-07
-6.69305e-06
-9.81595e-06
-3.42626e-07
4.36042e-06
-6.49562e-07
5.38564e-06
-8.64375e-07
5.2715e-06
-9.80161e-07
4.40057e-06
-1.16174e-06
3.32632e-06
-1.51743e-06
2.85657e-06
-1.9573e-06
2.67159e-06
-2.35925e-06
2.31727e-06
-2.66568e-06
1.75708e-06
-2.82891e-06
1.0055e-06
-2.84537e-06
1.52769e-07
-2.69971e-06
-6.79886e-07
-2.40765e-06
-1.43822e-06
-1.98771e-06
-2.08238e-06
-1.48428e-06
-2.51957e-06
-9.9172e-07
-2.76425e-06
-5.74452e-07
-3.05189e-06
-4.42547e-07
-4.0175e-06
-4.56513e-07
-6.67908e-06
-1.02725e-05
-1.25349e-07
4.48577e-06
-2.96414e-07
5.5567e-06
-4.42118e-07
5.4172e-06
-5.77703e-07
4.53615e-06
-8.36393e-07
3.58501e-06
-1.22238e-06
3.24255e-06
-1.6464e-06
3.09562e-06
-2.01214e-06
2.683e-06
-2.27511e-06
2.02005e-06
-2.41037e-06
1.14076e-06
-2.4286e-06
1.71001e-07
-2.33945e-06
-7.69036e-07
-2.12872e-06
-1.64895e-06
-1.79037e-06
-2.42073e-06
-1.34947e-06
-2.96048e-06
-8.9102e-07
-3.2227e-06
-4.91631e-07
-3.45128e-06
-3.42877e-07
-4.16625e-06
-3.84985e-07
-6.63697e-06
-1.06574e-05
7.30622e-08
4.4127e-06
-8.16893e-10
5.63058e-06
-7.21938e-08
5.48858e-06
-2.13106e-07
4.67706e-06
-4.71704e-07
3.84361e-06
-7.8982e-07
3.56067e-06
-1.10297e-06
3.40878e-06
-1.35385e-06
2.93388e-06
-1.52679e-06
2.19299e-06
-1.63266e-06
1.24663e-06
-1.67326e-06
2.11597e-07
-1.64159e-06
-8.00705e-07
-1.53763e-06
-1.7529e-06
-1.34313e-06
-2.61524e-06
-1.03623e-06
-3.26738e-06
-6.68966e-07
-3.58996e-06
-3.53624e-07
-3.76662e-06
-2.32646e-07
-4.28723e-06
-3.0715e-07
-6.56247e-06
-1.09646e-05
2.60961e-07
4.15174e-06
3.46073e-07
5.54547e-06
3.37225e-07
5.49743e-06
2.20736e-07
4.79355e-06
5.19278e-08
4.01242e-06
-1.76079e-07
3.78867e-06
-3.53486e-07
3.58618e-06
-4.9753e-07
3.07793e-06
-5.95111e-07
2.29057e-06
-6.65561e-07
1.31708e-06
-7.12763e-07
2.58799e-07
-7.25573e-07
-7.87895e-07
-7.14641e-07
-1.76383e-06
-6.87353e-07
-2.64253e-06
-5.50032e-07
-3.4047e-06
-3.55818e-07
-3.78417e-06
-1.59589e-07
-3.96285e-06
-1.35071e-07
-4.31175e-06
-2.76996e-07
-6.42054e-06
-1.12416e-05
4.72901e-07
3.67884e-06
6.8374e-07
5.33463e-06
7.75427e-07
5.40574e-06
6.72297e-07
4.89668e-06
5.68342e-07
4.11638e-06
5.09474e-07
3.84754e-06
4.73771e-07
3.62189e-06
4.35264e-07
3.11644e-06
4.05671e-07
2.32017e-06
3.71108e-07
1.35165e-06
3.28068e-07
3.01839e-07
2.6679e-07
-7.26617e-07
2.0229e-07
-1.69933e-06
1.14143e-07
-2.55438e-06
8.56204e-08
-3.37618e-06
5.15177e-09
-3.7037e-06
9.6175e-08
-4.05387e-06
-5.65844e-08
-4.15899e-06
-2.16322e-07
-6.26081e-06
-1.14579e-05
6.50037e-07
3.0288e-06
1.00799e-06
4.97668e-06
1.21677e-06
5.19696e-06
1.21669e-06
4.89676e-06
1.18514e-06
4.14792e-06
1.26643e-06
3.76625e-06
1.3818e-06
3.50651e-06
1.46371e-06
3.03454e-06
1.49856e-06
2.28531e-06
1.47251e-06
1.3777e-06
1.39688e-06
3.7747e-07
1.27324e-06
-6.02979e-07
1.10727e-06
-1.53336e-06
9.18084e-07
-2.36519e-06
6.80296e-07
-3.13839e-06
5.18953e-07
-3.54236e-06
3.39458e-07
-3.87437e-06
5.03094e-08
-3.86984e-06
-1.54556e-07
-6.05594e-06
-1.16125e-05
9.08996e-07
2.11981e-06
1.33121e-06
4.55447e-06
1.568e-06
4.96017e-06
1.70377e-06
4.761e-06
1.73598e-06
4.11571e-06
1.90914e-06
3.59309e-06
2.14906e-06
3.26659e-06
2.35838e-06
2.82521e-06
2.47948e-06
2.16421e-06
2.49643e-06
1.36075e-06
2.41335e-06
4.60554e-07
2.2463e-06
-4.35935e-07
2.00748e-06
-1.29454e-06
1.69853e-06
-2.05624e-06
1.33605e-06
-2.77591e-06
1.00483e-06
-3.21114e-06
5.91802e-07
-3.46135e-06
1.88146e-07
-3.46619e-06
-1.71272e-08
-5.85067e-06
-1.16296e-05
9.78785e-07
1.14102e-06
1.58964e-06
3.94361e-06
1.96087e-06
4.58894e-06
2.23691e-06
4.48496e-06
2.36221e-06
3.99041e-06
2.55726e-06
3.39803e-06
2.8488e-06
2.97506e-06
3.13496e-06
2.53905e-06
3.33517e-06
1.964e-06
3.40563e-06
1.29029e-06
3.33653e-06
5.29658e-07
3.13483e-06
-2.34241e-07
2.82981e-06
-9.8951e-07
2.43913e-06
-1.66557e-06
1.96053e-06
-2.29731e-06
1.44664e-06
-2.69724e-06
8.58803e-07
-2.87352e-06
3.55756e-07
-2.96314e-06
1.1316e-07
-5.60807e-06
-1.15164e-05
6.41655e-07
4.99369e-07
1.49044e-06
3.09482e-06
2.05505e-06
4.02433e-06
2.51923e-06
4.02078e-06
2.85324e-06
3.65641e-06
3.12359e-06
3.12768e-06
3.43799e-06
2.66066e-06
3.74971e-06
2.22732e-06
3.98335e-06
1.73035e-06
4.0907e-06
1.18295e-06
4.05203e-06
5.68325e-07
3.85848e-06
-4.0683e-08
3.5423e-06
-6.73336e-07
3.10231e-06
-1.22557e-06
2.53797e-06
-1.73298e-06
1.86267e-06
-2.02194e-06
1.11453e-06
-2.12538e-06
5.12487e-07
-2.3611e-06
2.93754e-07
-5.38934e-06
-1.12227e-05
2.43117e-07
2.56252e-07
1.17686e-06
2.16108e-06
1.95332e-06
3.24787e-06
2.64203e-06
3.33207e-06
3.21078e-06
3.08766e-06
3.65803e-06
2.68042e-06
4.05733e-06
2.26136e-06
4.40977e-06
1.87488e-06
4.67286e-06
1.46726e-06
4.81276e-06
1.04305e-06
4.80037e-06
5.80713e-07
4.61921e-06
1.40482e-07
4.276e-06
-3.30132e-07
3.75948e-06
-7.09047e-07
3.07195e-06
-1.04544e-06
2.23164e-06
-1.18163e-06
1.36651e-06
-1.26024e-06
7.93333e-07
-1.78792e-06
5.99951e-07
-5.19596e-06
-1.06227e-05
-3.85453e-07
6.41705e-07
4.24873e-07
1.35075e-06
1.39663e-06
2.27611e-06
2.35831e-06
2.3704e-06
3.18343e-06
2.26254e-06
3.85853e-06
2.00532e-06
4.41648e-06
1.70341e-06
4.86517e-06
1.4262e-06
5.17887e-06
1.15356e-06
5.34339e-06
8.78533e-07
5.32455e-06
5.99553e-07
5.15616e-06
3.08872e-07
4.78143e-06
4.45896e-08
4.20605e-06
-1.33665e-07
3.45441e-06
-2.93798e-07
2.57588e-06
-3.03104e-07
1.80097e-06
-4.85342e-07
1.41181e-06
-1.39876e-06
1.14999e-06
-4.93414e-06
-9.47274e-06
-1.17221e-06
1.81391e-06
-7.47506e-07
9.26052e-07
4.5956e-07
1.06904e-06
1.67592e-06
1.15404e-06
2.77378e-06
1.16468e-06
3.69271e-06
1.0864e-06
4.42253e-06
9.73586e-07
5.00187e-06
8.46858e-07
5.415e-06
7.40429e-07
5.67914e-06
6.14394e-07
5.74712e-06
5.31573e-07
5.65673e-06
3.99255e-07
5.35741e-06
3.43917e-07
4.946e-06
2.77746e-07
4.41983e-06
2.32368e-07
3.98025e-06
1.3648e-07
3.61174e-06
-1.16832e-07
3.37832e-06
-1.16534e-06
2.41875e-06
-3.97456e-06
-7.05399e-06
1.81391e-06
2.73996e-06
3.80901e-06
4.96305e-06
6.12772e-06
7.21412e-06
8.18771e-06
9.03457e-06
9.775e-06
1.03894e-05
1.0921e-05
1.13202e-05
1.16641e-05
1.19419e-05
1.21742e-05
1.23107e-05
1.21939e-05
1.10286e-05
7.05399e-06
)
;

boundaryField
{
    movingWall
    {
        type            calculated;
        value           uniform 0;
    }
    fixedWalls
    {
        type            calculated;
        value           uniform 0;
    }
    frontAndBack
    {
        type            empty;
        value           nonuniform 0();
    }
}


// ************************************************************************* //
