/*--------------------------------*- C++ -*----------------------------------*\
| =========                 |                                                 |
| \\      /  F ield         | OpenFOAM: The Open Source CFD Toolbox           |
|  \\    /   O peration     | Version:  5.0                                   |
|   \\  /    A nd           | Web:      www.OpenFOAM.org                      |
|    \\/     M anipulation  |                                                 |
\*---------------------------------------------------------------------------*/
FoamFile
{
    version     2.0;
    format      ascii;
    class       volVectorField;
    location    "4.5";
    object      U;
}
// * * * * * * * * * * * * * * * * * * * * * * * * * * * * * * * * * * * * * //

dimensions      [0 1 -1 0 0 0 0];

internalField   nonuniform List<vector> 
400
(
(0.00195329 -0.00265432 0)
(0.00483271 -0.00203101 0)
(0.000886899 0.000201009 0)
(-0.00872357 0.00509707 0)
(-0.0350248 0.0131724 0)
(-0.0692359 0.0138 0)
(-0.0892615 0.0108633 0)
(-0.109648 0.0103616 0)
(-0.120943 0.00770174 0)
(-0.132797 0.00729074 0)
(-0.138653 0.00526145 0)
(-0.144398 0.00490348 0)
(-0.146881 0.00312833 0)
(-0.147831 0.00222083 0)
(-0.144865 -0.00122413 0)
(-0.134726 -0.00400726 0)
(-0.117207 -0.0107245 0)
(-0.0896222 -0.0159342 0)
(-0.0542019 -0.0189976 0)
(-0.0161195 -0.00707554 0)
(0.000470733 -0.00464928 0)
(-0.00628828 0.00304763 0)
(-0.0228329 0.0161669 0)
(-0.0550647 0.0351761 0)
(-0.0816103 0.0392619 0)
(-0.099646 0.0341873 0)
(-0.111994 0.0290935 0)
(-0.124767 0.0209883 0)
(-0.131514 0.0159914 0)
(-0.138482 0.0103816 0)
(-0.140932 0.00641573 0)
(-0.143681 0.00215711 0)
(-0.142703 -0.00182688 0)
(-0.141984 -0.00643281 0)
(-0.137569 -0.0119048 0)
(-0.130063 -0.0210001 0)
(-0.114789 -0.0349916 0)
(-0.0927626 -0.0542389 0)
(-0.0614761 -0.0714253 0)
(-0.0216885 -0.0574475 0)
(-0.00327991 0.00359528 0)
(-0.0205933 0.0240632 0)
(-0.0484221 0.0471979 0)
(-0.0726664 0.0574265 0)
(-0.0875392 0.0545389 0)
(-0.0965431 0.0460112 0)
(-0.104188 0.0360302 0)
(-0.107139 0.0281408 0)
(-0.104215 0.0204263 0)
(-0.102774 0.0140631 0)
(-0.0984184 0.00861746 0)
(-0.0968216 0.00374948 0)
(-0.093772 -0.000691051 0)
(-0.0935546 -0.00574228 0)
(-0.0918738 -0.0119733 0)
(-0.090643 -0.0226334 0)
(-0.0838662 -0.0416004 0)
(-0.0708654 -0.0711114 0)
(-0.0523726 -0.101078 0)
(-0.020539 -0.105426 0)
(-0.00702304 0.0216099 0)
(-0.0317768 0.0491805 0)
(-0.0564071 0.0678707 0)
(-0.0707539 0.0705667 0)
(-0.0784984 0.0626625 0)
(-0.0792049 0.0502124 0)
(-0.0748878 0.0376458 0)
(-0.0681017 0.0256141 0)
(-0.0667194 0.0168855 0)
(-0.0642966 0.00962879 0)
(-0.0633312 0.00444573 0)
(-0.0604598 -0.000267708 0)
(-0.0589512 -0.00360649 0)
(-0.054689 -0.00784569 0)
(-0.0526292 -0.0125658 0)
(-0.0510382 -0.021257 0)
(-0.0523614 -0.0393772 0)
(-0.0455812 -0.0763819 0)
(-0.0403522 -0.119404 0)
(-0.0130419 -0.134225 0)
(-0.00686357 0.0405288 0)
(-0.0334437 0.0695173 0)
(-0.0489021 0.0811595 0)
(-0.0573675 0.0794535 0)
(-0.0582745 0.0652824 0)
(-0.0520832 0.0482627 0)
(-0.0496816 0.0338932 0)
(-0.0498638 0.0243691 0)
(-0.0531875 0.017317 0)
(-0.0539997 0.0103341 0)
(-0.0551574 0.00441984 0)
(-0.0524816 -0.00200443 0)
(-0.0496455 -0.00733239 0)
(-0.0432622 -0.0128531 0)
(-0.0375135 -0.0174242 0)
(-0.0322698 -0.0241325 0)
(-0.0324787 -0.0378991 0)
(-0.0252862 -0.0717905 0)
(-0.031973 -0.129262 0)
(-0.00675156 -0.160063 0)
(-0.00633338 0.0596199 0)
(-0.0278166 0.0858111 0)
(-0.0366557 0.0913859 0)
(-0.0432119 0.083479 0)
(-0.0399506 0.0634361 0)
(-0.0363265 0.0452697 0)
(-0.0405873 0.0345131 0)
(-0.0460565 0.0275419 0)
(-0.0523008 0.0202517 0)
(-0.055179 0.0119776 0)
(-0.0566034 0.00349188 0)
(-0.0536531 -0.00525797 0)
(-0.0497587 -0.0130139 0)
(-0.0421211 -0.0201494 0)
(-0.0338457 -0.0256158 0)
(-0.0251114 -0.0315455 0)
(-0.0231565 -0.0428148 0)
(-0.0129695 -0.075007 0)
(-0.0243773 -0.13097 0)
(-0.00216137 -0.175423 0)
(-0.00463443 0.0743475 0)
(-0.0195382 0.0962958 0)
(-0.0249523 0.0978008 0)
(-0.0300889 0.0851978 0)
(-0.0264186 0.0624255 0)
(-0.0289981 0.0469547 0)
(-0.0383927 0.0400547 0)
(-0.0464099 0.0337555 0)
(-0.0539931 0.0254087 0)
(-0.0575539 0.0149997 0)
(-0.0593619 0.00249866 0)
(-0.0563128 -0.0091567 0)
(-0.0520987 -0.0199721 0)
(-0.0438627 -0.0290739 0)
(-0.0346237 -0.0353014 0)
(-0.0240405 -0.0403822 0)
(-0.0202599 -0.0480996 0)
(-0.00594061 -0.07523 0)
(-0.0212744 -0.133867 0)
(0.00069865 -0.19039 0)
(-0.00206811 0.0837727 0)
(-0.0122818 0.10471 0)
(-0.0160108 0.103616 0)
(-0.020267 0.0869019 0)
(-0.0184258 0.0641056 0)
(-0.0256944 0.0528574 0)
(-0.0359787 0.0482798 0)
(-0.0443651 0.0415958 0)
(-0.0521798 0.0313305 0)
(-0.0554089 0.0177514 0)
(-0.0573583 0.00253228 0)
(-0.0550325 -0.0132564 0)
(-0.0510718 -0.0272061 0)
(-0.0434707 -0.0387649 0)
(-0.0340379 -0.0463894 0)
(-0.0230139 -0.0514256 0)
(-0.019625 -0.0580408 0)
(-0.00142669 -0.0798811 0)
(-0.0184468 -0.133151 0)
(0.00322194 -0.1996 0)
(0.000119334 0.0893354 0)
(-0.00548804 0.109547 0)
(-0.00783308 0.106391 0)
(-0.0110821 0.0883276 0)
(-0.0111424 0.0680347 0)
(-0.0202985 0.059874 0)
(-0.0300128 0.0566286 0)
(-0.0379484 0.048909 0)
(-0.0448737 0.0366814 0)
(-0.0476192 0.020541 0)
(-0.048354 0.00280232 0)
(-0.0472973 -0.0157664 0)
(-0.0444487 -0.0327389 0)
(-0.0386497 -0.0470444 0)
(-0.0310408 -0.0563498 0)
(-0.0202219 -0.0607943 0)
(-0.018614 -0.0656044 0)
(0.0012696 -0.0823257 0)
(-0.0173357 -0.133624 0)
(0.00472981 -0.20978 0)
(0.00292409 0.0897307 0)
(-0.000119616 0.112583 0)
(-8.1235e-05 0.109349 0)
(-0.00336701 0.0915865 0)
(-0.00442763 0.0736905 0)
(-0.0128943 0.0677398 0)
(-0.0201713 0.0645795 0)
(-0.0258022 0.0556247 0)
(-0.0305292 0.0414735 0)
(-0.0318298 0.0231475 0)
(-0.0331639 0.00328903 0)
(-0.0325612 -0.0168895 0)
(-0.031573 -0.0358417 0)
(-0.0278612 -0.0526545 0)
(-0.0246493 -0.064633 0)
(-0.0138162 -0.0701422 0)
(-0.0160722 -0.0738814 0)
(0.00447395 -0.0855866 0)
(-0.016292 -0.131994 0)
(0.0068164 -0.216149 0)
(0.00478073 0.0870289 0)
(0.00549813 0.112844 0)
(0.00708825 0.110214 0)
(0.00514416 0.0939966 0)
(0.00440192 0.077862 0)
(-0.00178189 0.0727905 0)
(-0.00603733 0.0695184 0)
(-0.00922091 0.059604 0)
(-0.0120664 0.0444853 0)
(-0.0126911 0.0253615 0)
(-0.0139318 0.00465937 0)
(-0.0136445 -0.016234 0)
(-0.0144491 -0.0358938 0)
(-0.0126017 -0.0539715 0)
(-0.0145245 -0.0678658 0)
(-0.00459778 -0.0746379 0)
(-0.0125053 -0.0786156 0)
(0.00838507 -0.0862422 0)
(-0.0162377 -0.131048 0)
(0.00833294 -0.223335 0)
(0.00734823 0.0803111 0)
(0.010888 0.110573 0)
(0.0149193 0.110072 0)
(0.0142077 0.0972907 0)
(0.0139418 0.081925 0)
(0.0102856 0.0769043 0)
(0.00900592 0.072782 0)
(0.00855949 0.0625213 0)
(0.00755349 0.0463454 0)
(0.00776451 0.0266778 0)
(0.00687006 0.00543197 0)
(0.00698054 -0.0152864 0)
(0.00426209 -0.0347654 0)
(0.00474624 -0.051702 0)
(-0.000663616 -0.068884 0)
(0.00548032 -0.0758041 0)
(-0.00612645 -0.0818496 0)
(0.0121871 -0.0847573 0)
(-0.0164053 -0.127066 0)
(0.0111375 -0.227 0)
(0.0084233 0.0697333 0)
(0.0160486 0.1049 0)
(0.0227729 0.106895 0)
(0.0240624 0.0988143 0)
(0.0251989 0.0822943 0)
(0.0240021 0.0767106 0)
(0.0253612 0.0722631 0)
(0.0276905 0.0626489 0)
(0.0286213 0.0469835 0)
(0.0297332 0.0278428 0)
(0.0287924 0.00684407 0)
(0.0283545 -0.0131134 0)
(0.0239658 -0.0319373 0)
(0.0220894 -0.0493225 0)
(0.0153044 -0.0645892 0)
(0.0153498 -0.0728256 0)
(0.00146208 -0.0790992 0)
(0.01651 -0.07991 0)
(-0.0166999 -0.123656 0)
(0.0138733 -0.230861 0)
(0.0130793 0.054595 0)
(0.02158 0.097962 0)
(0.0300439 0.102945 0)
(0.0318275 0.0983604 0)
(0.0350825 0.0840343 0)
(0.0361766 0.0752301 0)
(0.039229 0.0700456 0)
(0.0442454 0.0611764 0)
(0.0473931 0.0468117 0)
(0.0498744 0.0291887 0)
(0.0491611 0.00919778 0)
(0.0486063 -0.00974077 0)
(0.0430359 -0.027689 0)
(0.0394855 -0.0433559 0)
(0.030325 -0.0588537 0)
(0.0268273 -0.0677228 0)
(0.00905857 -0.0734593 0)
(0.020066 -0.0733223 0)
(-0.0168197 -0.117389 0)
(0.0184164 -0.231467 0)
(0.0126025 0.029504 0)
(0.0255634 0.0832906 0)
(0.0371531 0.095574 0)
(0.0418475 0.0928038 0)
(0.0455933 0.0821899 0)
(0.0488605 0.0702598 0)
(0.0525632 0.0626738 0)
(0.058945 0.0541867 0)
(0.0635585 0.0420706 0)
(0.0676804 0.0271817 0)
(0.0672978 0.0103771 0)
(0.0670826 -0.00650819 0)
(0.0603087 -0.0222654 0)
(0.0555733 -0.0366985 0)
(0.0444957 -0.0499862 0)
(0.0374723 -0.0585691 0)
(0.0167329 -0.0628805 0)
(0.0233524 -0.0639713 0)
(-0.0150496 -0.114442 0)
(0.0230414 -0.232384 0)
(0.00247025 0.0136467 0)
(0.0239311 0.0722707 0)
(0.0373008 0.0883259 0)
(0.0459938 0.0873399 0)
(0.0528997 0.0793042 0)
(0.059274 0.0676495 0)
(0.0640294 0.057982 0)
(0.0710962 0.0489481 0)
(0.0760139 0.0380872 0)
(0.0810629 0.0259119 0)
(0.0812359 0.0118905 0)
(0.0814488 -0.0019762 0)
(0.0748617 -0.0156713 0)
(0.0698638 -0.0278201 0)
(0.0572093 -0.0393616 0)
(0.0478106 -0.0466244 0)
(0.0239561 -0.0501234 0)
(0.0259974 -0.0533594 0)
(-0.0125462 -0.110277 0)
(0.0302843 -0.232209 0)
(-0.00553599 0.00578212 0)
(0.0160482 0.0503754 0)
(0.0335938 0.0721672 0)
(0.0465132 0.0746003 0)
(0.0573139 0.0689479 0)
(0.068094 0.0596591 0)
(0.075654 0.0503212 0)
(0.0840795 0.0416657 0)
(0.0894375 0.032311 0)
(0.0952588 0.022278 0)
(0.0958494 0.0113436 0)
(0.0965541 0.000548266 0)
(0.0901374 -0.0102741 0)
(0.0842492 -0.0194994 0)
(0.0693224 -0.0277926 0)
(0.0571161 -0.0320405 0)
(0.0303384 -0.0334821 0)
(0.02867 -0.0422327 0)
(-0.00551938 -0.110168 0)
(0.0387676 -0.232782 0)
(-0.0126291 0.00486925 0)
(-0.00143685 0.0377391 0)
(0.0204137 0.0601837 0)
(0.0380974 0.062468 0)
(0.05398 0.0585337 0)
(0.0699888 0.0511597 0)
(0.0814726 0.0433326 0)
(0.0926363 0.0361884 0)
(0.0992994 0.0289529 0)
(0.105762 0.0216718 0)
(0.106828 0.0136297 0)
(0.107008 0.00594261 0)
(0.100779 -0.00157538 0)
(0.0935623 -0.00739741 0)
(0.0777877 -0.0125442 0)
(0.0638917 -0.0136982 0)
(0.0374789 -0.0158759 0)
(0.0355023 -0.0328328 0)
(0.00930284 -0.113096 0)
(0.0521139 -0.225293 0)
(-0.0204065 0.025637 0)
(-0.0252293 0.0150499 0)
(-0.00147668 0.0285876 0)
(0.0213238 0.0319976 0)
(0.0435638 0.032116 0)
(0.0646733 0.0295186 0)
(0.0804429 0.0255037 0)
(0.0941674 0.0214366 0)
(0.103709 0.017338 0)
(0.111145 0.0131482 0)
(0.114868 0.00969825 0)
(0.115322 0.00590907 0)
(0.11154 0.0031818 0)
(0.105933 0.00200036 0)
(0.0940796 -0.000131738 0)
(0.0851569 -0.000115359 0)
(0.0679847 -0.00710515 0)
(0.0665709 -0.0318047 0)
(0.0510269 -0.105087 0)
(0.0763323 -0.179079 0)
(0.0400378 0.0370449 0)
(0.0433999 0.0248995 0)
(0.0621412 0.0181938 0)
(0.0872977 0.0167647 0)
(0.109622 0.0165527 0)
(0.132755 0.0158914 0)
(0.152256 0.0150923 0)
(0.172013 0.0135913 0)
(0.186827 0.0129382 0)
(0.202185 0.0111035 0)
(0.21248 0.0108168 0)
(0.223731 0.00898494 0)
(0.230328 0.00931639 0)
(0.237372 0.00769223 0)
(0.240488 0.00865253 0)
(0.244101 0.00657734 0)
(0.242453 0.00466404 0)
(0.232405 -0.00218823 0)
(0.197754 -0.014783 0)
(0.147119 -0.0342671 0)
)
;

boundaryField
{
    movingWall
    {
        type            fixedValue;
        value           uniform (1 0 0);
    }
    fixedWalls
    {
        type            noSlip;
    }
    frontAndBack
    {
        type            empty;
    }
}


// ************************************************************************* //
