/*--------------------------------*- C++ -*----------------------------------*\
| =========                 |                                                 |
| \\      /  F ield         | OpenFOAM: The Open Source CFD Toolbox           |
|  \\    /   O peration     | Version:  5.0                                   |
|   \\  /    A nd           | Web:      www.OpenFOAM.org                      |
|    \\/     M anipulation  |                                                 |
\*---------------------------------------------------------------------------*/
FoamFile
{
    version     2.0;
    format      ascii;
    class       volScalarField;
    location    "4.5";
    object      yPlus;
}
// * * * * * * * * * * * * * * * * * * * * * * * * * * * * * * * * * * * * * //

dimensions      [0 0 0 0 0 0 0];

internalField   uniform 0;

boundaryField
{
    movingWall
    {
        type            calculated;
        value           nonuniform List<scalar> 
20
(
15.4974
15.4671
15.3137
15.1068
14.9209
14.7257
14.5592
14.3884
14.259
14.1235
14.0321
13.9313
13.872
13.8082
13.7801
13.7471
13.7619
13.8528
14.1632
14.608
)
;
    }
    fixedWalls
    {
        type            calculated;
        value           nonuniform List<scalar> 
60
(
0.907685
1.08086
1.10302
2.3834
3.20569
3.87154
4.31543
4.57707
4.72587
4.73757
4.66798
4.49017
4.19047
3.74633
2.83209
1.86202
1.41466
1.83952
2.86213
3.69279
2.09786
3.91808
5.18189
5.8064
6.32861
6.62262
6.89912
7.06445
7.24281
7.35283
7.4748
7.53779
7.6039
7.61903
7.64074
7.6514
7.68095
7.60332
6.97619
6.14526
0.907685
1.14479
0.47681
1.5893
3.05859
4.20112
4.74131
5.2473
5.50427
5.76622
5.88967
6.01002
6.06041
6.07963
6.0181
5.80486
5.4244
4.77042
3.78929
2.09786
)
;
    }
    frontAndBack
    {
        type            empty;
    }
}


// ************************************************************************* //
